<LesHouchesEvents version="3.0">
<header>
<!--
#*********************************************************************
#                                                                    *
#                        MadGraph5_aMC@NLO                           *
#                                                                    *
#                           Going Beyond                             *
#                                                                    *
#                   http://madgraph.hep.uiuc.edu                     *
#                   http://madgraph.phys.ucl.ac.be                   *
#                   http://amcatnlo.cern.ch                          *
#                                                                    *
#                     The MadGraph5_aMC@NLO team                     *
#                                                                    *
#....................................................................*
#                                                                    *
# This file contains all the information necessary to reproduce      *
# the events generated:                                              *
#                                                                    *
# 1. software version                                                *
# 2. proc_card          : code generation info including model       *
# 3. param_card         : model primary parameters in the LH format  *
# 4. run_card           : running parameters (collider and cuts)     *
# 5. pythia_card        : present only if pythia has been run        *
# 6. pgs_card           : present only if pgs has been run           *
# 7. delphes_cards      : present only if delphes has been run       *
#                                                                    *
#                                                                    *
#*********************************************************************
-->
<MGVersion>
3.5.6
</MGVersion>
<MG5ProcCard>
<![CDATA[
#************************************************************
#*                     MadGraph5_aMC@NLO                    *
#*                                                          *
#*                *                       *                 *
#*                  *        * *        *                   *
#*                    * * * * 5 * * * *                     *
#*                  *        * *        *                   *
#*                *                       *                 *
#*                                                          *
#*                                                          *
#*         VERSION 3.5.6                 2024-09-26         *
#*                                                          *
#*    The MadGraph5_aMC@NLO Development Team - Find us at   *
#*    https://server06.fynu.ucl.ac.be/projects/madgraph     *
#*                                                          *
#************************************************************
#*                                                          *
#*               Command File for MadGraph5_aMC@NLO         *
#*                                                          *
#*     run as ./bin/mg5_aMC  filename                       *
#*                                                          *
#************************************************************
set group_subprocesses Auto
set ignore_six_quark_processes False
set low_mem_multicore_nlo_generation False
set complex_mass_scheme False
set include_lepton_initiated_processes False
set gauge unitary
set loop_optimized_output True
set loop_color_flows False
set max_npoint_for_channel 0
set default_unset_couplings 99
set max_t_for_channel 99
set zerowidth_tchannel True
set nlo_mixed_expansion True
import model sm
define p = g u c d s u~ c~ d~ s~
define j = g u c d s u~ c~ d~ s~
define l+ = e+ mu+
define l- = e- mu-
define vl = ve vm vt
define vl~ = ve~ vm~ vt~
generate p p > t t~ > b mu+ vm b~ mu- vm~
add process p p > t t~ > b mu+ vm b~ mu- vm~ j
add process p p > t t~ > b mu+ vm b~ mu- vm~ j j
output PROC-ttfull
]]>
</MG5ProcCard>
<MGProcCard>
#*********************************************************************
#                        MadGraph/MadEvent                           *
#                   http://madgraph.hep.uiuc.edu                     *
#                                                                    *
#                          proc_card.dat                             *
#*********************************************************************
#                                                                    *
#            This Files is generated by MADGRAPH 5                   *
#                                                                    *
# WARNING: This Files is generated for MADEVENT (compatibility issue)*
#          This files is NOT a valid MG4 proc_card.dat               *
#          Running this in MG4 will NEVER reproduce the result of MG5*
#                                                                    *
#*********************************************************************
#*********************************************************************
# Process(es) requested : mg2 input                                  *
#*********************************************************************
# Begin PROCESS # This is TAG. Do not modify this line
p p > t t~ > b mu+ vm b~ mu- vm~           #Process
# Be carefull the coupling are here in MG5 convention
          
end_coup           # End the couplings input

done               # this tells MG there are no more procs
# End PROCESS  # This is TAG. Do not modify this line
#*********************************************************************
# Model information                                                  *
#*********************************************************************
# Begin MODEL  # This is TAG. Do not modify this line
sm
# End   MODEL  # This is TAG. Do not modify this line
#*********************************************************************
# Start multiparticle definitions                                    *
#*********************************************************************
# Begin MULTIPARTICLES # This is TAG. Do not modify this line

# End  MULTIPARTICLES # This is TAG. Do not modify this line
</MGProcCard>
<MGRunCard>
<![CDATA[
#*********************************************************************
#                       MadGraph5_aMC@NLO                            *
#                                                                    *
#                     run_card.dat MadEvent                          *
#                                                                    *
#  This file is used to set the parameters of the run.               *
#                                                                    *
#  Some notation/conventions:                                        *
#                                                                    *
#   Lines starting with a '# ' are info or comments                  *
#                                                                    *
#   mind the format:   value    = variable     ! comment             *
#                                                                    *
#   To display more options, you can type the command:               *
#      update to_full                                                *
#*********************************************************************
#                                                                    
#*********************************************************************
# Tag name for the run (one word)                                    *
#*********************************************************************
  tag_1     = run_tag ! name of the run 
#*********************************************************************
# Number of events and rnd seed                                      *
# Warning: Do not generate more than 1M events in a single run       *
#*********************************************************************
  1000 = nevents ! Number of unweighted events requested 
 21 = iseed   ! rnd seed (0=assigned automatically=default))
#*********************************************************************
# Collider type and energy                                           *
# lpp: 0=No PDF, 1=proton, -1=antiproton,                            *
#                2=elastic photon of proton/ion beam                 *
#             +/-3=PDF of electron/positron beam                     *
#             +/-4=PDF of muon/antimuon beam                         *
#*********************************************************************
     1        = lpp1    ! beam 1 type 
     1        = lpp2    ! beam 2 type
     6500.0     = ebeam1  ! beam 1 total energy in GeV
     6500.0     = ebeam2  ! beam 2 total energy in GeV
# To see polarised beam options: type "update beam_pol"

#*********************************************************************
# PDF CHOICE: this automatically fixes alpha_s and its evol.         *
# pdlabel: lhapdf=LHAPDF (installation needed) [1412.7420]           *
#          iww=Improved Weizsaecker-Williams Approx.[hep-ph/9310350] *
#          eva=Effective W/Z/A Approx.       [2111.02442]            *
#          edff=EDFF in gamma-UPC            [eq.(11) in 2207.03012] *
#          chff=ChFF in gamma-UPC            [eq.(13) in 2207.03012] *
#          none=No PDF, same as lhapdf with lppx=0                   *
#*********************************************************************
     nn23lo1    = pdlabel     ! PDF set 
     230000    = lhaid     ! if pdlabel=lhapdf, this is the lhapdf number
# To see heavy ion options: type "update ion_pdf"
#*********************************************************************
# Renormalization and factorization scales                           *
#*********************************************************************
 False = fixed_ren_scale  ! if .true. use fixed ren scale
     False = fixed_fac_scale  ! if .true. use fixed fac scale
 91.188  = scale            ! fixed ren scale
 91.188  = dsqrt_q2fact1    ! fixed fact scale for pdf1
 91.188  = dsqrt_q2fact2    ! fixed fact scale for pdf2
 -1 = dynamical_scale_choice ! Choose one of the preselected dynamical choices
 1.0  = scalefact        ! scale factor for event-by-event scales

 
#*********************************************************************
# Type and output format
#*********************************************************************
  False     = gridpack  !True = setting up the grid pack
  -1.0 = time_of_flight ! threshold (in mm) below which the invariant livetime is not written (-1 means not written)
  average =  event_norm       ! average/sum. Normalization of the weight in the LHEF
#*********************************************************************
# Matching parameter (MLM only)
#*********************************************************************
 0 = ickkw            ! 0 no matching, 1 MLM
 1.0 = alpsfact         ! scale factor for QCD emission vx
 False = chcluster        ! cluster only according to channel diag
 4 = asrwgtflavor     ! highest quark flavor for a_s reweight
 True  = auto_ptj_mjj  ! Automatic setting of ptj and mjj if xqcut >0
                                   ! (turn off for VBF and single top processes)
 0.0   = xqcut   ! minimum kt jet measure between partons

#***********************************************************************
# Turn on either the ktdurham or ptlund cut to activate                *
# CKKW(L) merging with Pythia8 [arXiv:1410.3012, arXiv:1109.4829]      *
#***********************************************************************
 -1.0  =  ktdurham
 0.4   =  dparameter
 10.0  =  ptlund
 1, 2, 3, 4, 5, 6, 21  =  pdgs_for_merging_cut ! PDGs for two cuts above

#*********************************************************************
#
#*********************************************************************
# Phase-Space Optimization strategy (basic options)
#*********************************************************************
   0  = nhel          ! using helicities importance sampling or not.
                             ! 0: sum over helicity, 1: importance sampling
   1  = sde_strategy  ! default integration strategy (hep-ph/2021.00773)
                             ! 1 is old strategy (using amp square)
			     ! 2 is new strategy (using only the denominator)
# To see advanced option for Phase-Space optimization: type "update psoptim"			     
#*********************************************************************
# Customization (custom cuts/scale/bias/...)                         *
# list of files containing fortran function that overwrite default   *
#*********************************************************************
  = custom_fcts ! List of files containing user hook function
#*******************************                                                 
# Parton level cuts definition *
#*******************************
  0.0  = dsqrt_shat ! minimal shat for full process
#                                                                    
#
#*********************************************************************
# BW cutoff (M+/-bwcutoff*Gamma) ! Define on/off-shell for "$" and decay  
#*********************************************************************
  15.0  = bwcutoff      ! (M+/-bwcutoff*Gamma)
#*********************************************************************
# Standard Cuts                                                      *
#*********************************************************************
# Minimum and maximum pt's (for max, -1 means no cut)                *
#*********************************************************************
 20.0  = ptj       ! minimum pt for the jets 
 0.0  = ptb       ! minimum pt for the b 
 10.0  = ptl       ! minimum pt for the charged leptons 
 0.0  = misset    ! minimum missing Et (sum of neutrino's momenta)
 -1.0  = ptjmax    ! maximum pt for the jets
 -1.0  = ptbmax    ! maximum pt for the b
 -1.0  = ptlmax    ! maximum pt for the charged leptons
 -1.0  = missetmax ! maximum missing Et (sum of neutrino's momenta)
 {} = pt_min_pdg ! pt cut for other particles (use pdg code). Applied on particle and anti-particle
 {}	= pt_max_pdg ! pt cut for other particles (syntax e.g. {6: 100, 25: 50}) 
#
# For display option for energy cut in the partonic center of mass frame type 'update ecut'
#
#*********************************************************************
# Maximum and minimum absolute rapidity (for max, -1 means no cut)   *
#*********************************************************************
 5.0 = etaj    ! max rap for the jets 
 -1.0  = etab    ! max rap for the b
 2.5  = etal    ! max rap for the charged leptons 
 0.0  = etabmin ! min rap for the b
 0.0  = etalmin ! min rap for the charged leptons
 {} = eta_min_pdg ! rap cut for other particles (use pdg code). Applied on particle and anti-particle
 {} = eta_max_pdg ! rap cut for other particles (syntax e.g. {6: 2.5, 23: 5})
#*********************************************************************
# Minimum and maximum DeltaR distance                                *
#*********************************************************************
 0.0 = drjj    ! min distance between jets 
 0.0   = drbb    ! min distance between b's 
 0.4 = drll    ! min distance between leptons 
 0.0   = drbj    ! min distance between b and jet 
 0.0 = drjl    ! min distance between jet and lepton 
 0.0   = drbl    ! min distance between b and lepton 
 -1.0  = drjjmax ! max distance between jets
 -1.0  = drbbmax ! max distance between b's
 -1.0  = drllmax ! max distance between leptons
 -1.0  = drbjmax ! max distance between b and jet
 -1.0  = drjlmax ! max distance between jet and lepton
 -1.0  = drblmax ! max distance between b and lepton
#*********************************************************************
# Minimum and maximum invariant mass for pairs                       *
#*********************************************************************
 0.0   = mmjj    ! min invariant mass of a jet pair 
 0.0   = mmbb    ! min invariant mass of a b pair 
 0.0   = mmll    ! min invariant mass of l+l- (same flavour) lepton pair
 -1.0  = mmjjmax ! max invariant mass of a jet pair
 -1.0  = mmbbmax ! max invariant mass of a b pair
 -1.0  = mmllmax ! max invariant mass of l+l- (same flavour) lepton pair
 {} = mxx_min_pdg ! min invariant mass of a pair of particles X/X~ (e.g. {6:250})
 {'default': False} = mxx_only_part_antipart ! if True the invariant mass is applied only 
                       ! to pairs of particle/antiparticle and not to pairs of the same pdg codes.  
 #*********************************************************************
 # Minimum and maximum invariant mass for all letpons                 *
 #*********************************************************************
 0.0   = mmnl    ! min invariant mass for all letpons (l+- and vl) 
 -1.0  = mmnlmax ! max invariant mass for all letpons (l+- and vl) 
 #*********************************************************************
 # Minimum and maximum pt for 4-momenta sum of leptons / neutrino     *
 #  for pair of lepton includes only same flavor, opposite charge
 #*********************************************************************
 0.0   = ptllmin  ! Minimum pt for 4-momenta sum of leptons(l and vl)
 -1.0  = ptllmax  ! Maximum pt for 4-momenta sum of leptons(l and vl)
#*********************************************************************
# Inclusive cuts                                                     *
#*********************************************************************
 0.0  = xptj ! minimum pt for at least one jet  
 0.0  = xptb ! minimum pt for at least one b 
 0.0  = xptl ! minimum pt for at least one charged lepton 
 #*********************************************************************
 # Control the pt's of the jets sorted by pt                          *
 #*********************************************************************
 0.0   = ptj1min ! minimum pt for the leading jet in pt
 0.0   = ptj2min ! minimum pt for the second jet in pt
 -1.0  = ptj1max ! maximum pt for the leading jet in pt 
 -1.0  = ptj2max ! maximum pt for the second jet in pt
 0   = cutuse  ! reject event if fails any (0) / all (1) jet pt cuts
 #*********************************************************************
 # Control the pt's of leptons sorted by pt                           *
 #*********************************************************************
 0.0   = ptl1min ! minimum pt for the leading lepton in pt
 0.0   = ptl2min ! minimum pt for the second lepton in pt
 -1.0  = ptl1max ! maximum pt for the leading lepton in pt 
 -1.0  = ptl2max ! maximum pt for the second lepton in pt
 #*********************************************************************
 # Control the Ht(k)=Sum of k leading jets                            *
 #*********************************************************************
 0.0   = htjmin ! minimum jet HT=Sum(jet pt)
 -1.0  = htjmax ! maximum jet HT=Sum(jet pt)
 0.0   = ihtmin  !inclusive Ht for all partons (including b)
 -1.0  = ihtmax  !inclusive Ht for all partons (including b)
 0.0   = ht2min ! minimum Ht for the two leading jets
 0.0   = ht3min ! minimum Ht for the three leading jets
 0.0   = ht4min ! minimum Ht for the four leading jets
 -1.0  = ht2max ! maximum Ht for the two leading jets
 -1.0  = ht3max ! maximum Ht for the three leading jets
 -1.0  = ht4max ! maximum Ht for the four leading jets
 #*********************************************************************
 # WBF cuts                                                           *
 #*********************************************************************
 0.0   = xetamin ! minimum rapidity for two jets in the WBF case  
 0.0   = deltaeta ! minimum rapidity for two jets in the WBF case 
#*********************************************************************
# maximal pdg code for quark to be considered as a light jet         *
# (otherwise b cuts are applied)                                     *
#*********************************************************************
 4 = maxjetflavor    ! Maximum jet pdg code
#*********************************************************************
#
#*********************************************************************
# Store info for systematics studies                                 *
# WARNING: Do not use for interference type of computation           *
#*********************************************************************
   True  = use_syst      ! Enable systematics studies
#
systematics = systematics_program ! none, systematics [python], SysCalc [depreceted, C++]
['--mur=0.5,1,2', '--muf=0.5,1,2', '--pdf=errorset', '--alps=0.5,1,2'] = systematics_arguments ! see: https://cp3.irmp.ucl.ac.be/projects/madgraph/wiki/Systematics#Systematicspythonmodule
]]>
</MGRunCard>
<slha>
######################################################################
## PARAM_CARD AUTOMATICALY GENERATED BY MG5                       ####
######################################################################
###################################
## INFORMATION FOR MASS
###################################
BLOCK MASS # 
      5 4.700000e+00 # mb
      6 1.730000e+02 # mt
      15 1.777000e+00 # mta
      23 9.118800e+01 # mz
      25 1.250000e+02 # mh
      1 0.000000e+00 # d : 0.0
      2 0.000000e+00 # u : 0.0
      3 0.000000e+00 # s : 0.0
      4 0.000000e+00 # c : 0.0
      11 0.000000e+00 # e- : 0.0
      12 0.000000e+00 # ve : 0.0
      13 0.000000e+00 # mu- : 0.0
      14 0.000000e+00 # vm : 0.0
      16 0.000000e+00 # vt : 0.0
      21 0.000000e+00 # g : 0.0
      22 0.000000e+00 # a : 0.0
      24 8.041900e+01 # w+ : cmath.sqrt(mz__exp__2/2. + cmath.sqrt(mz__exp__4/4. - (aew*cmath.pi*mz__exp__2)/(gf*sqrt__2)))
###################################
## INFORMATION FOR SMINPUTS
###################################
BLOCK SMINPUTS # 
      1 1.325070e+02 # aewm1
      2 1.166390e-05 # gf
      3 1.300000e-01 # as (note that parameter not used if you use a pdf set)
###################################
## INFORMATION FOR YUKAWA
###################################
BLOCK YUKAWA # 
      5 4.700000e+00 # ymb
      6 1.730000e+02 # ymt
      15 1.777000e+00 # ymtau
###################################
## INFORMATION FOR DECAY
###################################
DECAY 6 1.491500e+00 # wt
DECAY 23 2.441404e+00 # wz
DECAY 24 2.047600e+00 # ww
DECAY 25 6.382339e-03 # wh
DECAY 1 0.000000e+00 # d : 0.0
DECAY 2 0.000000e+00 # u : 0.0
DECAY 3 0.000000e+00 # s : 0.0
DECAY 4 0.000000e+00 # c : 0.0
DECAY 5 0.000000e+00 # b : 0.0
DECAY 11 0.000000e+00 # e- : 0.0
DECAY 12 0.000000e+00 # ve : 0.0
DECAY 13 0.000000e+00 # mu- : 0.0
DECAY 14 0.000000e+00 # vm : 0.0
DECAY 15 0.000000e+00 # ta- : 0.0
DECAY 16 0.000000e+00 # vt : 0.0
DECAY 21 0.000000e+00 # g : 0.0
DECAY 22 0.000000e+00 # a : 0.0
</slha>
<MGGenerationInfo>
#  Number of Events        :       1000
#  Integrated weight (pb)  :       14.674046355359742
</MGGenerationInfo>
</header>
<init>
2212 2212 6.500000e+03 6.500000e+03 0 0 247000 247000 -4 3
4.443880e+00 4.249847e-02 1.467405e+01 1
1.654189e-01 5.208965e-03 1.467405e+01 2
3.619548e-01 3.914083e-02 1.467405e+01 3
<generator name='MadGraph5_aMC@NLO' version='3.5.6'>please cite 1405.0301 </generator>
</init>
<event>
13      2 +1.4674046e+01 1.78349200e+02 7.54677100e-03 1.16970900e-01
       21 -1    0    0  504  502 +0.0000000000e+00 +0.0000000000e+00 +5.6265942944e+01 5.6265942944e+01 0.0000000000e+00 0.0000e+00 -1.0000e+00
       21 -1    0    0  501  503 -0.0000000000e+00 -0.0000000000e+00 -1.2831075260e+03 1.2831075260e+03 0.0000000000e+00 0.0000e+00 -1.0000e+00
        6  2    1    2  501    0 +7.3476905768e+00 -5.8623910676e+01 -5.3305090552e+02 5.6361288101e+02 1.7327856276e+02 0.0000e+00 0.0000e+00
       24  2    3    3    0    0 +6.3925893016e+01 -7.0372703094e+01 -3.7198779632e+02 3.9243302747e+02 8.1178342557e+01 0.0000e+00 0.0000e+00
       -6  2    1    2    0  502 -7.9788533363e+01 -4.8875134325e+01 -5.4120938877e+02 5.7554877495e+02 1.7202848904e+02 0.0000e+00 0.0000e+00
      -24  2    5    5    0    0 -1.8210407280e+01 +2.3082800668e+01 -1.3055507945e+02 1.5408838323e+02 7.6381715470e+01 0.0000e+00 0.0000e+00
        5  1    3    3  501    0 -5.6578202439e+01 +1.1748792419e+01 -1.6106310920e+02 1.7117985355e+02 4.7000000000e+00 0.0000e+00 -1.0000e+00
      -13  1    4    4    0    0 +5.2897225878e+01 -4.4235334629e+00 -2.2128508719e+02 2.2756268140e+02 0.0000000000e+00 0.0000e+00 1.0000e+00
       14  1    4    4    0    0 +1.1028667138e+01 -6.5949169631e+01 -1.5070270913e+02 1.6487034607e+02 0.0000000000e+00 0.0000e+00 -1.0000e+00
       -5  1    5    5    0  502 -6.1578126083e+01 -7.1957934992e+01 -4.1065430932e+02 4.2146039171e+02 4.7000000000e+00 0.0000e+00 1.0000e+00
       13  1    6    6    0    0 -2.3580595358e+01 -9.7578083502e+00 -1.1418686772e+02 1.1700384635e+02 0.0000000000e+00 0.0000e+00 -1.0000e+00
      -14  1    6    6    0    0 +5.3701880780e+00 +3.2840609018e+01 -1.6368211727e+01 3.7084536883e+01 0.0000000000e+00 0.0000e+00 1.0000e+00
       21  1    1    2  504  503 +7.2440842786e+01 +1.0749904500e+02 -1.5258128882e+02 2.0021181303e+02 0.0000000000e+00 0.0000e+00 -1.0000e+00
<mgrwt>
<rscale>  3 0.17804485E+03</rscale>
<asrwt>0</asrwt>
<pdfrwt beam="1">  1       21 0.86563004E-02 0.17834920E+03</pdfrwt>
<pdfrwt beam="2">  1       21 0.19740112E+00 0.17834920E+03</pdfrwt>
<totfact> 0.14762905E+04</totfact>
</mgrwt>
</event>
<event>
13      2 +1.4674046e+01 2.01008100e+02 7.54677100e-03 1.14905900e-01
       21 -1    0    0  504  502 +0.0000000000e+00 +0.0000000000e+00 +1.1993109494e+02 1.1993109494e+02 0.0000000000e+00 0.0000e+00 -1.0000e+00
       21 -1    0    0  502  503 -0.0000000000e+00 -0.0000000000e+00 -3.5723568227e+02 3.5723568227e+02 0.0000000000e+00 0.0000e+00 1.0000e+00
       -6  2    1    2    0  503 +1.4933008149e+01 +1.0027493104e+02 -5.9659472288e+01 2.0890935882e+02 1.7264359543e+02 0.0000e+00 0.0000e+00
      -24  2    3    3    0    0 +9.9912406290e+00 -6.7819211810e+00 -6.0080819184e+01 1.0163467306e+02 8.1080716510e+01 0.0000e+00 0.0000e+00
        6  2    1    2  504    0 -1.4933008149e+01 -1.0027493104e+02 -1.7764511505e+02 2.6825741838e+02 1.7356900383e+02 0.0000e+00 0.0000e+00
       24  2    5    5    0    0 +5.0733062478e+01 -6.7400192974e+01 -1.1698191029e+02 1.6550296866e+02 8.1177802753e+01 0.0000e+00 0.0000e+00
        5  1    5    5  501    0 -4.1990755610e+01 -2.5051657225e+01 -1.6104750269e+01 5.1693926796e+01 4.7000000000e+00 0.0000e+00 -1.0000e+00
      -13  1    6    6    0    0 +2.0447939255e-01 +1.7911496575e+01 -1.8662774655e+01 2.5868178892e+01 0.0000000000e+00 0.0000e+00 1.0000e+00
       14  1    6    6    0    0 +5.0528583085e+01 -8.5311689549e+01 -9.8319135639e+01 1.3963478977e+02 0.0000000000e+00 0.0000e+00 -1.0000e+00
       -5  1    3    3    0  503 +4.9417675197e+00 +1.0705685222e+02 +4.2134689684e-01 1.0727468577e+02 4.7000000000e+00 0.0000e+00 1.0000e+00
       13  1    4    4    0    0 -1.5777569094e+01 -1.9107726145e+01 +9.4065603022e+00 2.6505098786e+01 0.0000000000e+00 0.0000e+00 -1.0000e+00
      -14  1    4    4    0    0 +2.5768809723e+01 +1.2325804963e+01 -6.9487379487e+01 7.5129574273e+01 0.0000000000e+00 0.0000e+00 1.0000e+00
       21  1    5    5  504  501 -2.3675315017e+01 -7.8230808366e+00 -4.4558454485e+01 5.1060522922e+01 0.0000000000e+00 0.0000e+00 1.0000e+00
<mgrwt>
<rscale>  3 0.20080817E+03</rscale>
<asrwt>0</asrwt>
<pdfrwt beam="1">  1       21 0.18450938E-01 0.20100810E+03</pdfrwt>
<pdfrwt beam="2">  1       21 0.54959335E-01 0.20100810E+03</pdfrwt>
<totfact> 0.83484479E+04</totfact>
</mgrwt>
</event>
<event>
13      2 +1.4674046e+01 2.91850000e+02 7.54677100e-03 1.08938700e-01
       -2 -1    0    0    0  501 -0.0000000000e+00 +0.0000000000e+00 +3.2803030747e+02 3.2803030747e+02 0.0000000000e+00 0.0000e+00 -1.0000e+00
        2 -1    0    0  502    0 +0.0000000000e+00 -0.0000000000e+00 -5.0160822927e+02 5.0160822927e+02 0.0000000000e+00 0.0000e+00 1.0000e+00
        6  2    1    2  502    0 -2.2484166155e+02 +4.8075017124e+01 -3.1619576814e+02 4.2762374167e+02 1.7325507384e+02 0.0000e+00 0.0000e+00
       24  2    3    3    0    0 -1.0313166289e+02 +6.2508551679e+01 -9.0313864501e+01 1.7058994023e+02 8.0005466452e+01 0.0000e+00 0.0000e+00
       -6  2    1    2    0  503 +2.4798209438e+02 -3.9052109640e+01 +5.3816571179e+01 3.0980547363e+02 1.7338691345e+02 0.0000e+00 0.0000e+00
      -24  2    5    5    0    0 +1.2918581093e+02 +2.5135953210e+01 +7.8101119990e+01 1.7253022574e+02 7.9662437565e+01 0.0000e+00 0.0000e+00
        5  1    3    3  502    0 -1.2170999866e+02 -1.4433534555e+01 -2.2588190364e+02 2.5703380144e+02 4.7000000000e+00 0.0000e+00 -1.0000e+00
      -13  1    4    4    0    0 -9.0694940156e+01 +1.0913845742e+01 -6.2368124677e+01 1.1060952569e+02 0.0000000000e+00 0.0000e+00 1.0000e+00
       14  1    4    4    0    0 -1.2436722733e+01 +5.1594705937e+01 -2.7945739824e+01 5.9980414532e+01 0.0000000000e+00 0.0000e+00 -1.0000e+00
       -5  1    5    5    0  503 +1.1879628344e+02 -6.4188062849e+01 -2.4284548811e+01 1.3727524789e+02 4.7000000000e+00 0.0000e+00 1.0000e+00
       13  1    6    6    0    0 +4.9985356528e+01 -2.5081300907e+01 +4.8959128976e+01 7.4327678778e+01 0.0000000000e+00 0.0000e+00 -1.0000e+00
      -14  1    6    6    0    0 +7.9200454403e+01 +5.0217254117e+01 +2.9141991015e+01 9.8202546957e+01 0.0000000000e+00 0.0000e+00 1.0000e+00
       21  1    1    2  503  501 -2.3140432828e+01 -9.0229074846e+00 +8.8801275164e+01 9.2209321447e+01 0.0000000000e+00 0.0000e+00 -1.0000e+00
<mgrwt>
<rscale>  3 0.29184996E+03</rscale>
<asrwt>0</asrwt>
<pdfrwt beam="2">  1        2 0.77170497E-01 0.29184996E+03</pdfrwt>
<pdfrwt beam="1">  1       -2 0.50466201E-01 0.29184996E+03</pdfrwt>
<totfact> 0.23545120E+02</totfact>
</mgrwt>
</event>
<event>
13      2 +1.4674046e+01 2.47411400e+02 7.54677100e-03 1.11536800e-01
       21 -1    0    0  504  502 +0.0000000000e+00 +0.0000000000e+00 +3.9275169186e+02 3.9275169186e+02 0.0000000000e+00 0.0000e+00 -1.0000e+00
       21 -1    0    0  501  503 -0.0000000000e+00 -0.0000000000e+00 -4.2087549051e+02 4.2087549051e+02 0.0000000000e+00 0.0000e+00 -1.0000e+00
        6  2    1    2  501    0 -1.6518697304e+02 -6.3769672758e+01 -1.1350307260e+01 2.4773708325e+02 1.7289165890e+02 0.0000e+00 0.0000e+00
       24  2    3    3    0    0 -8.6708710726e+01 +1.9956193099e+01 +3.5230950973e+01 1.2379854248e+02 7.8537946599e+01 0.0000e+00 0.0000e+00
       -6  2    1    2    0  502 +1.7041377510e+02 +2.8713655954e+01 +2.1738357931e+02 3.2906573903e+02 1.7653133226e+02 0.0000e+00 0.0000e+00
      -24  2    5    5    0    0 +9.1471742691e+01 +1.5908848312e+01 +3.2129183272e+01 1.2723142869e+02 8.0841702506e+01 0.0000e+00 0.0000e+00
        5  1    3    3  501    0 -7.8478262315e+01 -8.3725865858e+01 -4.6581258233e+01 1.2393854077e+02 4.7000000000e+00 0.0000e+00 -1.0000e+00
      -13  1    4    4    0    0 -6.4765525536e+01 -1.6218332426e+01 -2.9189916414e+00 6.6829096334e+01 0.0000000000e+00 0.0000e+00 1.0000e+00
       14  1    4    4    0    0 -2.1943185191e+01 +3.6174525525e+01 +3.8149942614e+01 5.6969446151e+01 0.0000000000e+00 0.0000e+00 -1.0000e+00
       -5  1    5    5    0  502 +7.8942032413e+01 +1.2804807642e+01 +1.8525439603e+02 2.0183431034e+02 4.7000000000e+00 0.0000e+00 1.0000e+00
       13  1    6    6    0    0 +2.4285826008e+01 +1.1309351988e+01 +5.0727667039e+01 5.7367229239e+01 0.0000000000e+00 0.0000e+00 -1.0000e+00
      -14  1    6    6    0    0 +6.7185916683e+01 +4.5994963238e+00 -1.8598483767e+01 6.9864199454e+01 0.0000000000e+00 0.0000e+00 1.0000e+00
       21  1    1    2  504  503 -5.2268020624e+00 +3.5056016804e+01 -2.3415707069e+02 2.3682436008e+02 0.0000000000e+00 0.0000e+00 -1.0000e+00
<mgrwt>
<rscale>  3 0.24676298E+03</rscale>
<asrwt>0</asrwt>
<pdfrwt beam="1">  1       21 0.60423337E-01 0.24741145E+03</pdfrwt>
<pdfrwt beam="2">  1       21 0.64750076E-01 0.24741145E+03</pdfrwt>
<totfact> 0.53995569E+03</totfact>
</mgrwt>
</event>
<event>
14      3 +1.4674046e+01 2.09415600e+02 7.54677100e-03 1.14582200e-01
       21 -1    0    0  505  502 +0.0000000000e+00 +0.0000000000e+00 +3.0542275118e+02 3.0542275118e+02 0.0000000000e+00 0.0000e+00 -1.0000e+00
       21 -1    0    0  504  503 -0.0000000000e+00 -0.0000000000e+00 -3.0616165066e+02 3.0616165066e+02 0.0000000000e+00 0.0000e+00 -1.0000e+00
        6  2    1    2  501    0 -7.1279042838e+01 -8.6147585981e+01 -3.7758303797e+01 2.2542494022e+02 1.9206406653e+02 0.0000e+00 0.0000e+00
       24  2    3    3    0    0 -4.9782223079e+00 -6.2788007786e+01 +4.8270070437e+01 1.1422943730e+02 8.2165978529e+01 0.0000e+00 0.0000e+00
       -6  2    1    2    0  502 +3.4757095276e+01 +6.5191908777e+01 +1.3982927923e+02 2.3369394127e+02 1.7205403284e+02 0.0000e+00 0.0000e+00
      -24  2    5    5    0    0 +5.3461959503e+01 +7.2699662793e+01 +3.2879773939e+01 1.2476036060e+02 7.9628173145e+01 0.0000e+00 0.0000e+00
        5  1    3    3  501    0 -6.6300820530e+01 -2.3359578195e+01 -8.6028374234e+01 1.1119550292e+02 4.7000000000e+00 0.0000e+00 -1.0000e+00
      -13  1    4    4    0    0 +2.2196501977e+01 -4.3385402573e+01 -7.4209274443e+00 4.9295517246e+01 0.0000000000e+00 0.0000e+00 1.0000e+00
       14  1    4    4    0    0 -2.7174724285e+01 -1.9402605213e+01 +5.5690997882e+01 6.4933920058e+01 0.0000000000e+00 0.0000e+00 -1.0000e+00
       -5  1    5    5    0  502 -1.8704864228e+01 -7.5077540157e+00 +1.0694950529e+02 1.0893358067e+02 4.7000000000e+00 0.0000e+00 1.0000e+00
       13  1    6    6    0    0 +5.5303859946e+01 +3.8404049579e+01 +5.2343788801e+01 8.5283410901e+01 0.0000000000e+00 0.0000e+00 -1.0000e+00
      -14  1    6    6    0    0 -1.8419004424e+00 +3.4295613213e+01 -1.9464014861e+01 3.9476949698e+01 0.0000000000e+00 0.0000e+00 1.0000e+00
       21  1    1    2  504  501 -2.5144218953e+01 +1.7554116641e+01 -8.1588879720e+01 8.7161482616e+01 0.0000000000e+00 0.0000e+00 1.0000e+00
       21  1    1    2  505  503 +6.1666166516e+01 +3.4015605625e+00 -2.1220995186e+01 6.5304037729e+01 0.0000000000e+00 0.0000e+00 -1.0000e+00
<mgrwt>
<rscale>  4 0.20471316E+03</rscale>
<asrwt>0</asrwt>
<pdfrwt beam="1">  1       21 0.46988116E-01 0.20941561E+03</pdfrwt>
<pdfrwt beam="2">  1       21 0.47101792E-01 0.20941561E+03</pdfrwt>
<totfact> 0.18509193E+04</totfact>
</mgrwt>
</event>
<event>
12      1 +1.4674046e+01 2.27975400e+02 7.54677100e-03 1.12827200e-01
       21 -1    0    0  501  502 +0.0000000000e+00 +0.0000000000e+00 +4.5567110362e+02 4.5567110362e+02 0.0000000000e+00 0.0000e+00 1.0000e+00
       21 -1    0    0  502  503 -0.0000000000e+00 -0.0000000000e+00 -2.1632661282e+02 2.1632661282e+02 0.0000000000e+00 0.0000e+00 1.0000e+00
       -6  2    1    2    0  503 +1.8709647169e+01 +1.4608502011e+02 -1.1182538573e+02 2.5392462635e+02 1.7401699623e+02 0.0000e+00 0.0000e+00
      -24  2    3    3    0    0 +4.4270298434e+01 +4.5885821278e+01 -1.0908589852e+02 1.5037357069e+02 8.1529807965e+01 0.0000e+00 0.0000e+00
        6  2    1    2  501    0 -1.8709647169e+01 -1.4608502011e+02 +3.5116987653e+02 4.1807309008e+02 1.7255127490e+02 0.0000e+00 0.0000e+00
       24  2    5    5    0    0 -2.1875463795e+01 -3.5808284735e+00 +8.6473063481e+01 1.1740057742e+02 7.6249240146e+01 0.0000e+00 0.0000e+00
        5  1    5    5  501    0 +3.1658166264e+00 -1.4250419164e+02 +2.6469681305e+02 3.0067251266e+02 4.7000000000e+00 0.0000e+00 -1.0000e+00
      -13  1    6    6    0    0 -1.8710930268e+01 -3.4420194298e+01 +7.4489532711e+01 8.4163763999e+01 0.0000000000e+00 0.0000e+00 1.0000e+00
       14  1    6    6    0    0 -3.1645335276e+00 +3.0839365825e+01 +1.1983530770e+01 3.3236813425e+01 0.0000000000e+00 0.0000e+00 -1.0000e+00
       -5  1    3    3    0  503 -2.5560651265e+01 +1.0019919883e+02 -2.7394872100e+00 1.0355105567e+02 4.7000000000e+00 0.0000e+00 1.0000e+00
       13  1    4    4    0    0 +3.5479860139e+01 -1.4615137557e+01 -6.3184924496e+01 7.3923997490e+01 0.0000000000e+00 0.0000e+00 -1.0000e+00
      -14  1    4    4    0    0 +8.7904382944e+00 +6.0500958835e+01 -4.5900974026e+01 7.6449573196e+01 0.0000000000e+00 0.0000e+00 1.0000e+00
<mgrwt>
<rscale>  2 0.22769571E+03</rscale>
<asrwt>0</asrwt>
<pdfrwt beam="1">  1       21 0.70103247E-01 0.22797544E+03</pdfrwt>
<pdfrwt beam="2">  1       21 0.33281017E-01 0.22797544E+03</pdfrwt>
<totfact> 0.15717669E+04</totfact>
</mgrwt>
</event>
<event>
12      3 +1.4674046e+01 8.33925400e+02 7.54677100e-03 9.75283500e-02
       -2 -1    0    0    0  501 -0.0000000000e+00 +0.0000000000e+00 +5.7072005888e+03 5.7072005888e+03 0.0000000000e+00 0.0000e+00 -1.0000e+00
       21 -1    0    0  502  503 +0.0000000000e+00 -0.0000000000e+00 -7.5568545411e+02 7.5568545411e+02 0.0000000000e+00 0.0000e+00 -1.0000e+00
       -6  2    1    2    0  501 +3.0816705632e+01 +3.4532271762e+02 +1.0017673237e+03 1.0741817399e+03 1.7358338306e+02 0.0000e+00 0.0000e+00
       24  2    1    2    0    0 -1.1098163915e+01 -4.7668852615e+02 +1.9278724576e+03 1.9877202468e+03 8.3573001258e+01 0.0000e+00 0.0000e+00
        5  1    1    2  502    0 -8.4273773030e+01 +2.1185457674e+02 +2.4792928622e+02 3.3686117537e+02 4.7000000000e+00 0.0000e+00 -1.0000e+00
      -13  1    4    4    0    0 -1.7933135137e+01 -1.8364887836e+02 +5.9305943679e+02 6.2110224877e+02 0.0000000000e+00 0.0000e+00 1.0000e+00
       14  1    4    4    0    0 +6.8349712223e+00 -2.9303964779e+02 +1.3348130208e+03 1.3666179980e+03 0.0000000000e+00 0.0000e+00 -1.0000e+00
       -5  1    3    3    0  501 +5.3932412383e+01 +7.0342711437e+01 +1.9834341259e+02 2.1729933611e+02 4.7000000000e+00 0.0000e+00 1.0000e+00
       13  1    3    3    0    0 +3.6905365613e+01 +5.6984261009e+01 +1.3246513428e+02 1.4884966850e+02 0.0000000000e+00 0.0000e+00 -1.0000e+00
      -14  1    3    3    0    0 -6.0021072365e+01 +2.1799574517e+02 +6.7095877681e+02 7.0803273527e+02 0.0000000000e+00 0.0000e+00 1.0000e+00
       21  1    1    2  504  503 +2.1220549328e+01 -2.7937731736e+01 -6.4413147824e+02 6.4508618790e+02 0.0000000000e+00 0.0000e+00 -1.0000e+00
       -2  1    1    2    0  504 +4.3334681985e+01 -5.2551036479e+01 +2.4180775454e+03 2.4190366930e+03 0.0000000000e+00 0.0000e+00 -1.0000e+00
<mgrwt>
<rscale>  4 0.67956271E+03</rscale>
<asrwt>0</asrwt>
<pdfrwt beam="2">  1       21 0.11625930E+00 0.83392539E+03</pdfrwt>
<pdfrwt beam="1">  1       -2 0.87803083E+00 0.83392539E+03</pdfrwt>
<totfact> 0.80480506E-04</totfact>
</mgrwt>
</event>
<event>
13      2 +1.4674046e+01 4.34244100e+02 7.54677100e-03 1.03255500e-01
       21 -1    0    0  501  502 +0.0000000000e+00 +0.0000000000e+00 +5.2166530123e+02 5.2166530123e+02 0.0000000000e+00 0.0000e+00 -1.0000e+00
       21 -1    0    0  502  503 -0.0000000000e+00 -0.0000000000e+00 -9.6126185447e+02 9.6126185447e+02 0.0000000000e+00 0.0000e+00 1.0000e+00
       -6  2    1    2    0  503 -2.7632433723e+02 +2.8598367389e+02 -8.0559928676e+02 9.1501351193e+02 1.7354456231e+02 0.0000e+00 0.0000e+00
      -24  2    3    3    0    0 -1.2719961927e+02 +1.5486174039e+02 -2.8233383708e+02 3.5439476962e+02 7.5639641695e+01 0.0000e+00 0.0000e+00
        6  2    1    2  501    0 +2.7632433723e+02 -2.8598367389e+02 +3.6600273351e+02 5.6791364377e+02 1.7443080222e+02 0.0000e+00 0.0000e+00
       24  2    5    5    0    0 +1.6742057535e+02 -2.5806679198e+02 +3.0177623577e+02 4.3835086108e+02 8.0339671125e+01 0.0000e+00 0.0000e+00
        5  1    5    5  501    0 +1.0890376188e+02 -2.7916881915e+01 +6.4226497735e+01 1.2956278269e+02 4.7000000000e+00 0.0000e+00 -1.0000e+00
      -13  1    6    6    0    0 +1.8360903281e+01 -2.4794475574e+01 +2.9342087581e+00 3.0991908126e+01 0.0000000000e+00 0.0000e+00 1.0000e+00
       14  1    6    6    0    0 +1.4905967207e+02 -2.3327231640e+02 +2.9884202702e+02 4.0735895295e+02 0.0000000000e+00 0.0000e+00 -1.0000e+00
       -5  1    3    3    0  504 -9.6396983535e+01 +6.4308525501e+01 -3.1151458532e+02 3.3240245449e+02 4.7000000000e+00 0.0000e+00 1.0000e+00
       13  1    4    4    0    0 +2.0429014433e+00 +3.7349906203e+01 -7.0682373184e+01 7.9969911959e+01 0.0000000000e+00 0.0000e+00 -1.0000e+00
      -14  1    4    4    0    0 -1.2924252071e+02 +1.1751183419e+02 -2.1165146389e+02 2.7442485766e+02 0.0000000000e+00 0.0000e+00 1.0000e+00
       21  1    3    3  504  503 -5.2727734429e+01 +6.6813407999e+01 -2.1175086436e+02 2.2821628782e+02 0.0000000000e+00 0.0000e+00 -1.0000e+00
<mgrwt>
<rscale>  3 0.43415523E+03</rscale>
<asrwt>0</asrwt>
<pdfrwt beam="1">  1       21 0.80256202E-01 0.43424406E+03</pdfrwt>
<pdfrwt beam="2">  1       21 0.14788644E+00 0.43424406E+03</pdfrwt>
<totfact> 0.35304533E+02</totfact>
</mgrwt>
</event>
<event>
12      1 +1.4674046e+01 3.16759900e+02 7.54677100e-03 1.07728200e-01
       21 -1    0    0  503  502 +0.0000000000e+00 +0.0000000000e+00 +1.4781793993e+03 1.4781793993e+03 0.0000000000e+00 0.0000e+00 -1.0000e+00
       21 -1    0    0  501  503 -0.0000000000e+00 -0.0000000000e+00 -9.9889691785e+01 9.9889691785e+01 0.0000000000e+00 0.0000e+00 -1.0000e+00
        6  2    1    2  501    0 -1.5230560178e+02 +2.1782013988e+02 +2.3996375802e+02 3.9649268053e+02 1.7023874671e+02 0.0000e+00 0.0000e+00
       24  2    3    3    0    0 -1.1611827862e+02 +2.0545724469e+02 +2.5343327515e+02 3.5567746981e+02 8.1128931646e+01 0.0000e+00 0.0000e+00
       -6  2    1    2    0  502 +1.5230560178e+02 -2.1782013988e+02 +1.1383259495e+03 1.1815764105e+03 1.7232015847e+02 0.0000e+00 0.0000e+00
      -24  2    5    5    0    0 +4.1130576003e+01 -1.6950451521e+02 +6.0203853538e+02 6.3173955613e+02 7.8873086289e+01 0.0000e+00 0.0000e+00
        5  1    3    3  501    0 -3.6187323158e+01 +1.2362895194e+01 -1.3469517129e+01 4.0815210726e+01 4.7000000000e+00 0.0000e+00 -1.0000e+00
      -13  1    4    4    0    0 -1.8832272500e+01 +4.3350307843e+01 +1.0555664597e+02 1.1565513039e+02 0.0000000000e+00 0.0000e+00 1.0000e+00
       14  1    4    4    0    0 -9.7286006120e+01 +1.6210693684e+02 +1.4787662918e+02 2.4002233941e+02 0.0000000000e+00 0.0000e+00 -1.0000e+00
       -5  1    5    5    0  502 +1.1117502578e+02 -4.8315624670e+01 +5.3628741409e+02 5.4983685440e+02 4.7000000000e+00 0.0000e+00 1.0000e+00
       13  1    6    6    0    0 +2.1168026195e+01 -6.0855383377e+01 +3.5950429127e+02 3.6523252657e+02 0.0000000000e+00 0.0000e+00 -1.0000e+00
      -14  1    6    6    0    0 +1.9962549808e+01 -1.0864913183e+02 +2.4253424411e+02 2.6650702956e+02 0.0000000000e+00 0.0000e+00 1.0000e+00
<mgrwt>
<rscale>  2 0.31647767E+03</rscale>
<asrwt>0</asrwt>
<pdfrwt beam="1">  1       21 0.22741220E+00 0.31675992E+03</pdfrwt>
<pdfrwt beam="2">  1       21 0.15367646E-01 0.31675992E+03</pdfrwt>
<totfact> 0.30776902E+03</totfact>
</mgrwt>
</event>
<event>
11      1 +1.4674046e+01 3.42942300e+02 7.54677100e-03 1.06812000e-01
       21 -1    0    0  501  502 +0.0000000000e+00 +0.0000000000e+00 +5.4047132836e+02 5.4047132836e+02 0.0000000000e+00 0.0000e+00 1.0000e+00
       21 -1    0    0  502  503 -0.0000000000e+00 -0.0000000000e+00 -8.9508684226e+02 8.9508684226e+02 0.0000000000e+00 0.0000e+00 -1.0000e+00
      -24  2    1    2    0    0 +4.7464317861e+01 +9.3571102680e+01 -3.6206218435e+02 3.8687688952e+02 8.7041884092e+01 0.0000e+00 0.0000e+00
        6  2    1    2  501    0 +7.5690009889e+01 -2.5771779277e+02 +4.5521139695e+02 5.5611000238e+02 1.7289731207e+02 0.0000e+00 0.0000e+00
       24  2    4    4    0    0 +9.2647477829e+01 -2.3823039442e+02 +4.5684959756e+02 5.2980243475e+02 8.1497172366e+01 0.0000e+00 0.0000e+00
        5  1    4    4  501    0 -1.6957467940e+01 -1.9487398353e+01 -1.6382006031e+00 2.6307567632e+01 4.7000000000e+00 0.0000e+00 -1.0000e+00
      -13  1    5    5    0    0 +9.8868777466e+01 -1.5208369434e+02 +2.9372447597e+02 3.4522246888e+02 0.0000000000e+00 0.0000e+00 1.0000e+00
       14  1    5    5    0    0 -6.2212996375e+00 -8.6146700085e+01 +1.6312512159e+02 1.8457996586e+02 0.0000000000e+00 0.0000e+00 -1.0000e+00
       -5  1    1    2    0  503 -1.2315432775e+02 +1.6414669009e+02 -4.4776472651e+02 4.9257127872e+02 4.7000000000e+00 0.0000e+00 1.0000e+00
       13  1    3    3    0    0 -2.0852733348e+01 +2.5727689050e+00 -8.0354064443e+01 8.3055591626e+01 0.0000000000e+00 0.0000e+00 -1.0000e+00
      -14  1    3    3    0    0 +6.8317051210e+01 +9.0998333775e+01 -2.8170811990e+02 3.0382129790e+02 0.0000000000e+00 0.0000e+00 1.0000e+00
<mgrwt>
<rscale>  2 0.33690902E+03</rscale>
<asrwt>0</asrwt>
<pdfrwt beam="1">  1       21 0.83149436E-01 0.34294235E+03</pdfrwt>
<pdfrwt beam="2">  1       21 0.13770567E+00 0.34294235E+03</pdfrwt>
<totfact> 0.41399909E+02</totfact>
</mgrwt>
</event>
<event>
14      3 +1.4674046e+01 2.32366200e+02 7.54677100e-03 1.12513500e-01
       21 -1    0    0  501  502 +0.0000000000e+00 +0.0000000000e+00 +4.6634137235e+02 4.6634137235e+02 0.0000000000e+00 0.0000e+00 -1.0000e+00
       21 -1    0    0  505  503 -0.0000000000e+00 -0.0000000000e+00 -9.0572553913e+02 9.0572553913e+02 0.0000000000e+00 0.0000e+00 -1.0000e+00
       -6  2    1    2    0  503 +1.8735773490e+02 +1.1108982143e+02 -2.7346501325e+02 3.9000963570e+02 1.7285986583e+02 0.0000e+00 0.0000e+00
      -24  2    3    3    0    0 +1.9316512604e+02 +8.4203255776e+01 -1.6916028808e+02 2.8203658862e+02 8.0786632889e+01 0.0000e+00 0.0000e+00
        6  2    1    2  501    0 -1.2185988744e+02 -4.9011935376e+01 -5.3930156200e+02 5.8170347186e+02 1.7401365586e+02 0.0000e+00 0.0000e+00
       24  2    5    5    0    0 -1.3458058476e+01 -4.9258289501e+01 -1.5416280543e+02 1.8157228210e+02 8.1208525566e+01 0.0000e+00 0.0000e+00
        5  1    5    5  501    0 -1.0840182896e+02 +2.4635412510e-01 -3.8513875657e+02 4.0013118976e+02 4.7000000000e+00 0.0000e+00 -1.0000e+00
      -13  1    6    6    0    0 -4.3712717335e+01 -2.5453782181e+01 -5.2681555629e+01 7.3034532843e+01 0.0000000000e+00 0.0000e+00 1.0000e+00
       14  1    6    6    0    0 +3.0254658859e+01 -2.3804507320e+01 -1.0148124980e+02 1.0853774925e+02 0.0000000000e+00 0.0000e+00 -1.0000e+00
       -5  1    3    3    0  503 -5.8073911366e+00 +2.6886565653e+01 -1.0430472517e+02 1.0797304708e+02 4.7000000000e+00 0.0000e+00 1.0000e+00
       13  1    4    4    0    0 +1.9448393043e+02 +9.1995691131e+01 -1.5285344042e+02 2.6391548009e+02 0.0000000000e+00 0.0000e+00 -1.0000e+00
      -14  1    4    4    0    0 -1.3188043863e+00 -7.7924353549e+00 -1.6306847659e+01 1.8121108530e+01 0.0000000000e+00 0.0000e+00 1.0000e+00
       21  1    1    2  504  502 -2.0506446592e+01 +3.5656561192e+00 +2.6539488318e+02 2.6620982753e+02 0.0000000000e+00 0.0000e+00 -1.0000e+00
       21  1    1    2  505  504 -4.4991400873e+01 -6.5643542172e+01 +1.0798752530e+02 1.3414397639e+02 0.0000000000e+00 0.0000e+00 -1.0000e+00
<mgrwt>
<rscale>  4 0.23215025E+03</rscale>
<asrwt>0</asrwt>
<pdfrwt beam="1">  1       21 0.71744827E-01 0.23236624E+03</pdfrwt>
<pdfrwt beam="2">  1       21 0.13934239E+00 0.23236624E+03</pdfrwt>
<totfact> 0.61026187E+02</totfact>
</mgrwt>
</event>
<event>
14      3 +1.4674046e+01 1.82080000e+02 7.54677100e-03 1.16601000e-01
       21 -1    0    0  505  502 +0.0000000000e+00 +0.0000000000e+00 +1.0255627330e+03 1.0255627330e+03 0.0000000000e+00 0.0000e+00 -1.0000e+00
       21 -1    0    0  502  503 -0.0000000000e+00 -0.0000000000e+00 -1.0952923053e+02 1.0952923053e+02 0.0000000000e+00 0.0000e+00 -1.0000e+00
       -6  2    1    2    0  504 +4.7544053345e+01 -3.6950319447e+01 +2.3377181999e+01 1.8407046569e+02 1.7236496333e+02 0.0000e+00 0.0000e+00
      -24  2    3    3    0    0 -2.3290710117e+00 -5.3405623704e+01 -3.6992399370e+01 1.0391635209e+02 8.1071483311e+01 0.0000e+00 0.0000e+00
        6  2    1    2  505    0 +2.1434150665e+01 +5.6320810758e+01 +8.4567954067e+02 8.6534754377e+02 1.7326577696e+02 0.0000e+00 0.0000e+00
       24  2    5    5    0    0 +4.7592983307e+01 -1.3007940454e+01 +1.9027432360e+02 2.0447313339e+02 5.6308484991e+01 0.0000e+00 0.0000e+00
        5  1    5    5  501    0 -9.7138140432e+00 +5.6297392217e+01 +5.7221180598e+02 5.7507581714e+02 4.7000000000e+00 0.0000e+00 -1.0000e+00
      -13  1    6    6    0    0 +5.8692128063e-01 -2.1533107922e+01 +2.8087074499e+01 3.5396369408e+01 0.0000000000e+00 0.0000e+00 1.0000e+00
       14  1    6    6    0    0 +4.7006062027e+01 +8.5251674678e+00 +1.6218724910e+02 1.6907676399e+02 0.0000000000e+00 0.0000e+00 -1.0000e+00
       -5  1    3    3    0  504 +4.9873124356e+01 +1.6455304257e+01 +6.0369581368e+01 8.0154113593e+01 4.7000000000e+00 0.0000e+00 1.0000e+00
       13  1    4    4    0    0 -3.4605429333e+01 -4.7574815372e+01 -6.5954852275e+00 5.9197966370e+01 0.0000000000e+00 0.0000e+00 -1.0000e+00
      -14  1    4    4    0    0 +3.2276358321e+01 -5.8308083325e+00 -3.0396914142e+01 4.4718385723e+01 0.0000000000e+00 0.0000e+00 1.0000e+00
       21  1    1    2  504  503 -6.8978204009e+01 -1.9370491311e+01 +4.6976779762e+01 8.5673954028e+01 0.0000000000e+00 0.0000e+00 -1.0000e+00
       21  1    5    5  505  501 -1.6445018600e+01 +1.3031358995e+01 +8.3193411083e+01 8.5798593238e+01 0.0000000000e+00 0.0000e+00 1.0000e+00
<mgrwt>
<rscale>  4 0.18186541E+03</rscale>
<asrwt>0</asrwt>
<pdfrwt beam="1">  1       21 0.15777888E+00 0.18208004E+03</pdfrwt>
<pdfrwt beam="2">  1       21 0.16850652E-01 0.18208004E+03</pdfrwt>
<totfact> 0.83569743E+03</totfact>
</mgrwt>
</event>
<event>
12      1 +1.4674046e+01 2.14160200e+02 7.54677100e-03 1.13833200e-01
       21 -1    0    0  501  502 +0.0000000000e+00 +0.0000000000e+00 +2.1191995676e+02 2.1191995676e+02 0.0000000000e+00 0.0000e+00 -1.0000e+00
       21 -1    0    0  502  503 -0.0000000000e+00 -0.0000000000e+00 -2.1778882937e+02 2.1778882937e+02 0.0000000000e+00 0.0000e+00 -1.0000e+00
       -6  2    1    2    0  503 +1.2044667248e+02 +3.8332782315e+01 -2.0530398688e+01 2.1514202653e+02 1.7288085839e+02 0.0000e+00 0.0000e+00
      -24  2    3    3    0    0 +3.1085505041e+01 +1.9963529010e+01 +4.6850948530e+01 1.0162910363e+02 8.2271575963e+01 0.0000e+00 0.0000e+00
        6  2    1    2  501    0 -1.2044667248e+02 -3.8332782315e+01 +1.4661526073e+01 2.1456675960e+02 1.7276322197e+02 0.0000e+00 0.0000e+00
       24  2    5    5    0    0 -1.8527612386e+01 -3.9589190484e+01 -3.7587390572e+01 9.9932067366e+01 8.1627383482e+01 0.0000e+00 0.0000e+00
        5  1    5    5  501    0 -1.0191906010e+02 +1.2564081696e+00 +5.2248916645e+01 1.1463469223e+02 4.7000000000e+00 0.0000e+00 -1.0000e+00
      -13  1    6    6    0    0 +3.0544706551e+00 -6.0205820841e+01 -1.3993746117e+01 6.1886150183e+01 0.0000000000e+00 0.0000e+00 1.0000e+00
       14  1    6    6    0    0 -2.1582083041e+01 +2.0616630356e+01 -2.3593644455e+01 3.8045917184e+01 0.0000000000e+00 0.0000e+00 -1.0000e+00
       -5  1    3    3    0  503 +8.9361167442e+01 +1.8369253304e+01 -6.7381347219e+01 1.1351292291e+02 4.7000000000e+00 0.0000e+00 1.0000e+00
       13  1    4    4    0    0 +4.4829327870e+01 +3.4283183429e+01 +5.6238554389e+01 7.9672958418e+01 0.0000000000e+00 0.0000e+00 -1.0000e+00
      -14  1    4    4    0    0 -1.3743822829e+01 -1.4319654419e+01 -9.3876058586e+00 2.1956145208e+01 0.0000000000e+00 0.0000e+00 1.0000e+00
<mgrwt>
<rscale>  2 0.21413647E+03</rscale>
<asrwt>0</asrwt>
<pdfrwt beam="1">  1       21 0.32603070E-01 0.21416021E+03</pdfrwt>
<pdfrwt beam="2">  1       21 0.33505974E-01 0.21416021E+03</pdfrwt>
<totfact> 0.76963944E+04</totfact>
</mgrwt>
</event>
<event>
14      3 +1.4674046e+01 2.59044500e+02 7.54677100e-03 1.10800700e-01
       21 -1    0    0  505  502 +0.0000000000e+00 +0.0000000000e+00 +1.0276239189e+03 1.0276239189e+03 0.0000000000e+00 0.0000e+00 -1.0000e+00
       21 -1    0    0  502  503 -0.0000000000e+00 -0.0000000000e+00 -1.2104557194e+03 1.2104557194e+03 0.0000000000e+00 0.0000e+00 1.0000e+00
       -6  2    1    2    0  503 -2.8578151446e+02 +2.9523559621e+01 -6.9946869221e+02 7.7555306469e+02 1.7228868271e+02 0.0000e+00 0.0000e+00
      -24  2    3    3    0    0 -8.6070637209e+01 +2.8621673344e+01 -2.0048877541e+02 2.3806976703e+02 9.0852133356e+01 0.0000e+00 0.0000e+00
        6  2    1    2  501    0 +1.1822019307e+02 +1.7904614196e+01 -3.9922235654e+02 4.5204033022e+02 1.7511533606e+02 0.0000e+00 0.0000e+00
       24  2    5    5    0    0 +9.3870144467e+01 +1.5602696874e+01 -4.0696328189e+02 4.2595900327e+02 8.2261239286e+01 0.0000e+00 0.0000e+00
        5  1    5    5  501    0 +2.4350048599e+01 +2.3019173224e+00 +7.7409253474e+00 2.6081326948e+01 4.7000000000e+00 0.0000e+00 -1.0000e+00
      -13  1    6    6    0    0 +1.2764325701e+01 +3.6418442722e+01 -8.6154437106e+01 9.4402425890e+01 0.0000000000e+00 0.0000e+00 1.0000e+00
       14  1    6    6    0    0 +8.1105818766e+01 -2.0815745848e+01 -3.2080884478e+02 3.3155657738e+02 0.0000000000e+00 0.0000e+00 -1.0000e+00
       -5  1    3    3    0  503 -1.9971087725e+02 +9.0188627751e-01 -4.9897991680e+02 5.3748329766e+02 4.7000000000e+00 0.0000e+00 1.0000e+00
       13  1    4    4    0    0 +1.3036496268e+01 -1.4571316650e+01 -4.0582375249e+01 4.5046672294e+01 0.0000000000e+00 0.0000e+00 -1.0000e+00
      -14  1    4    4    0    0 -9.9107133476e+01 +4.3192989993e+01 -1.5990640016e+02 1.9302309474e+02 0.0000000000e+00 0.0000e+00 1.0000e+00
       21  1    1    2  504  501 -6.3216290608e+00 -4.9868233810e+01 -2.3269865045e+01 5.5392150676e+01 0.0000000000e+00 0.0000e+00 -1.0000e+00
       21  1    1    2  505  504 +1.7388295046e+02 +2.4400599927e+00 +9.3912911334e+02 9.5509409268e+02 0.0000000000e+00 0.0000e+00 -1.0000e+00
<mgrwt>
<rscale>  4 0.25856760E+03</rscale>
<asrwt>0</asrwt>
<pdfrwt beam="1">  1       21 0.15809599E+00 0.25904451E+03</pdfrwt>
<pdfrwt beam="2">  1       21 0.18622396E+00 0.25904451E+03</pdfrwt>
<totfact> 0.39200128E+01</totfact>
</mgrwt>
</event>
<event>
12      1 +1.4674046e+01 2.61965200e+02 7.54677100e-03 1.10620900e-01
       21 -1    0    0  503  502 +0.0000000000e+00 +0.0000000000e+00 +6.4822917456e+02 6.4822917456e+02 0.0000000000e+00 0.0000e+00 1.0000e+00
       21 -1    0    0  501  503 -0.0000000000e+00 -0.0000000000e+00 -2.3947285293e+02 2.3947285293e+02 0.0000000000e+00 0.0000e+00 1.0000e+00
        6  2    1    2  501    0 -1.3532686156e+02 +1.4260627480e+02 -1.2768056855e+02 2.9142426164e+02 1.7313539100e+02 0.0000e+00 0.0000e+00
       24  2    3    3    0    0 -3.3809746835e+01 +1.1032918005e+02 -1.1865653930e+02 1.8441464277e+02 8.1325021952e+01 0.0000e+00 0.0000e+00
       -6  2    1    2    0  502 +1.3532686156e+02 -1.4260627480e+02 +5.3643689018e+02 5.9627776585e+02 1.7068312111e+02 0.0000e+00 0.0000e+00
      -24  2    5    5    0    0 +1.0503985468e+02 -2.2237010306e+01 +3.2223476502e+02 3.4866778414e+02 7.8778957919e+01 0.0000e+00 0.0000e+00
        5  1    3    3  501    0 -1.0151711472e+02 +3.2277094745e+01 -9.0240292429e+00 1.0700961887e+02 4.7000000000e+00 0.0000e+00 -1.0000e+00
      -13  1    4    4    0    0 -5.2271996864e+01 +3.4184929814e+01 -5.9234553965e+01 8.6079634444e+01 0.0000000000e+00 0.0000e+00 1.0000e+00
       14  1    4    4    0    0 +1.8462250028e+01 +7.6144250239e+01 -5.9421985340e+01 9.8335008325e+01 0.0000000000e+00 0.0000e+00 -1.0000e+00
       -5  1    5    5    0  502 +3.0287006881e+01 -1.2036926449e+02 +2.1420212516e+02 2.4760998171e+02 4.7000000000e+00 0.0000e+00 1.0000e+00
       13  1    6    6    0    0 +1.1610574298e+02 -2.4121297511e+01 +2.6471256669e+02 2.9006055145e+02 0.0000000000e+00 0.0000e+00 -1.0000e+00
      -14  1    6    6    0    0 -1.1065888302e+01 +1.8842872049e+00 +5.7522198333e+01 5.8607232687e+01 0.0000000000e+00 0.0000e+00 1.0000e+00
<mgrwt>
<rscale>  2 0.26156072E+03</rscale>
<asrwt>0</asrwt>
<pdfrwt beam="1">  1       21 0.99727565E-01 0.26196521E+03</pdfrwt>
<pdfrwt beam="2">  1       21 0.36841978E-01 0.26196521E+03</pdfrwt>
<totfact> 0.55997530E+03</totfact>
</mgrwt>
</event>
<event>
12      1 +1.4674046e+01 2.12023200e+02 7.54677100e-03 1.14004600e-01
       21 -1    0    0  501  502 +0.0000000000e+00 +0.0000000000e+00 +1.6908872088e+02 1.6908872088e+02 0.0000000000e+00 0.0000e+00 1.0000e+00
       21 -1    0    0  502  503 -0.0000000000e+00 -0.0000000000e+00 -2.8114343755e+02 2.8114343755e+02 0.0000000000e+00 0.0000e+00 1.0000e+00
       -6  2    1    2    0  503 -8.8368359951e+01 +8.4769807256e+01 -2.7944580066e+00 2.1204165800e+02 1.7308659240e+02 0.0000e+00 0.0000e+00
      -24  2    3    3    0    0 -7.7380556623e+01 +1.5558988308e+01 -5.4745669018e+01 1.2468098259e+02 7.9488530517e+01 0.0000e+00 0.0000e+00
        6  2    1    2  501    0 +8.8368359951e+01 -8.4769807256e+01 -1.0926025867e+02 2.3819050044e+02 1.7263262470e+02 0.0000e+00 0.0000e+00
       24  2    5    5    0    0 +9.4666415023e+01 -5.5334946217e+01 -1.1215355954e+01 1.3552127676e+02 7.8845074924e+01 0.0000e+00 0.0000e+00
        5  1    5    5  501    0 -6.2980550722e+00 -2.9434861039e+01 -9.8044902714e+01 1.0266922368e+02 4.7000000000e+00 0.0000e+00 -1.0000e+00
      -13  1    6    6    0    0 +2.5358907909e+01 -4.3629888059e+01 -3.4891459944e+01 6.1351897439e+01 0.0000000000e+00 0.0000e+00 1.0000e+00
       14  1    6    6    0    0 +6.9307507114e+01 -1.1705058158e+01 +2.3676103991e+01 7.4169379322e+01 0.0000000000e+00 0.0000e+00 -1.0000e+00
       -5  1    3    3    0  503 -1.0987803328e+01 +6.9210818949e+01 +5.1951211012e+01 8.7360675404e+01 4.7000000000e+00 0.0000e+00 1.0000e+00
       13  1    4    4    0    0 -1.6606864627e+01 +3.3456159202e+01 +4.8955021558e+00 3.7670525384e+01 0.0000000000e+00 0.0000e+00 -1.0000e+00
      -14  1    4    4    0    0 -6.0773691996e+01 -1.7897170895e+01 -5.9641171174e+01 8.7010457210e+01 0.0000000000e+00 0.0000e+00 1.0000e+00
<mgrwt>
<rscale>  2 0.21193057E+03</rscale>
<asrwt>0</asrwt>
<pdfrwt beam="1">  1       21 0.26013650E-01 0.21202324E+03</pdfrwt>
<pdfrwt beam="2">  1       21 0.43252836E-01 0.21202324E+03</pdfrwt>
<totfact> 0.71529298E+04</totfact>
</mgrwt>
</event>
<event>
13      3 +1.4674046e+01 1.82215300e+02 7.54677100e-03 1.16576700e-01
       21 -1    0    0  505  502 +0.0000000000e+00 +0.0000000000e+00 +2.6929676685e+02 2.6929676685e+02 0.0000000000e+00 0.0000e+00 1.0000e+00
       21 -1    0    0  504  503 -0.0000000000e+00 -0.0000000000e+00 -4.3753362465e+02 4.3753362465e+02 0.0000000000e+00 0.0000e+00 1.0000e+00
        6  2    1    2  501    0 -1.2256376404e+02 +1.9717311309e+01 -6.9551429610e+01 2.2405820983e+02 1.7307233000e+02 0.0000e+00 0.0000e+00
       -6  2    1    2    0  502 +3.2773119636e+00 +1.8342839752e+01 -9.7750612442e+01 1.9929309998e+02 1.7267123942e+02 0.0000e+00 0.0000e+00
      -24  2    4    4    0    0 -6.2914595541e+01 +9.7337540202e+00 -7.5417672193e+01 1.2874995576e+02 8.2678494965e+01 0.0000e+00 0.0000e+00
        5  1    3    3  501    0 +2.9276608892e+01 +4.8910994695e+01 -9.7051015663e+00 5.8014517379e+01 4.7000000000e+00 0.0000e+00 -1.0000e+00
      -13  1    3    3    0    0 -3.1975531330e+01 -7.7643000787e+00 -9.2096276489e+00 3.4169228862e+01 0.0000000000e+00 0.0000e+00 1.0000e+00
       14  1    3    3    0    0 -1.1986484160e+02 -2.1429383307e+01 -5.0636700395e+01 1.3187446359e+02 0.0000000000e+00 0.0000e+00 -1.0000e+00
       -5  1    4    4    0  502 +6.6191907505e+01 +8.6090857316e+00 -2.2332940249e+01 7.0543144220e+01 4.7000000000e+00 0.0000e+00 1.0000e+00
       13  1    5    5    0    0 -5.6679872659e+01 +3.0386307220e+01 -1.7064541959e+01 6.6536713349e+01 0.0000000000e+00 0.0000e+00 -1.0000e+00
      -14  1    5    5    0    0 -6.2347228824e+00 -2.0652553199e+01 -5.8353130234e+01 6.2213242411e+01 0.0000000000e+00 0.0000e+00 1.0000e+00
       21  1    1    2  504  501 +3.7429363326e+01 +1.0232445484e+01 -1.2288625244e+02 1.2886695161e+02 0.0000000000e+00 0.0000e+00 1.0000e+00
       21  1    1    2  505  503 +8.1857088749e+01 -4.8292596545e+01 +1.2195143668e+02 1.5461213008e+02 0.0000000000e+00 0.0000e+00 1.0000e+00
<mgrwt>
<rscale>  4 0.18212002E+03</rscale>
<asrwt>0</asrwt>
<pdfrwt beam="1">  1       21 0.41430272E-01 0.18221532E+03</pdfrwt>
<pdfrwt beam="2">  1       21 0.67312865E-01 0.18221532E+03</pdfrwt>
<totfact> 0.11407965E+04</totfact>
</mgrwt>
</event>
<event>
12      1 +1.4674046e+01 2.06110600e+02 7.54677100e-03 1.14551100e-01
       21 -1    0    0  503  502 +0.0000000000e+00 +0.0000000000e+00 +2.5559434940e+02 2.5559434940e+02 0.0000000000e+00 0.0000e+00 -1.0000e+00
       21 -1    0    0  501  503 -0.0000000000e+00 -0.0000000000e+00 -2.2537191390e+02 2.2537191390e+02 0.0000000000e+00 0.0000e+00 -1.0000e+00
        6  2    1    2  501    0 +9.8688973509e+01 -2.8174536518e+01 -1.1132193206e+02 2.3425234938e+02 1.7874079734e+02 0.0000e+00 0.0000e+00
       24  2    3    3    0    0 -6.0919845961e-01 -4.5249242667e+01 -1.0874708440e+02 1.3335441884e+02 6.2526854827e+01 0.0000e+00 0.0000e+00
       -6  2    1    2    0  502 -9.8688973509e+01 +2.8174536518e+01 +1.4154436756e+02 2.4671391392e+02 1.7406788714e+02 0.0000e+00 0.0000e+00
      -24  2    5    5    0    0 -6.9467097028e+01 -5.0196788179e+01 +7.3701022687e+01 1.3891413635e+02 8.0745906521e+01 0.0000e+00 0.0000e+00
        5  1    3    3  501    0 +9.9298171968e+01 +1.7074706149e+01 -2.5748476579e+00 1.0089793054e+02 4.7000000000e+00 0.0000e+00 -1.0000e+00
      -13  1    4    4    0    0 +1.9739831155e+01 -1.9410399343e+01 -1.0266159652e+01 2.9526573975e+01 0.0000000000e+00 0.0000e+00 1.0000e+00
       14  1    4    4    0    0 -2.0349029615e+01 -2.5838843323e+01 -9.8480924748e+01 1.0382784487e+02 0.0000000000e+00 0.0000e+00 -1.0000e+00
       -5  1    5    5    0  502 -2.9221876480e+01 +7.8371324697e+01 +6.7843344878e+01 1.0779977757e+02 4.7000000000e+00 0.0000e+00 1.0000e+00
       13  1    6    6    0    0 -6.4274611019e+01 -1.8822985812e+01 +8.2168418697e+01 1.0600556329e+02 0.0000000000e+00 0.0000e+00 -1.0000e+00
      -14  1    6    6    0    0 -5.1924860096e+00 -3.1373802367e+01 -8.4673960103e+00 3.2908573064e+01 0.0000000000e+00 0.0000e+00 1.0000e+00
<mgrwt>
<rscale>  2 0.20509337E+03</rscale>
<asrwt>0</asrwt>
<pdfrwt beam="1">  1       21 0.39322208E-01 0.20611063E+03</pdfrwt>
<pdfrwt beam="2">  1       21 0.34672602E-01 0.20611063E+03</pdfrwt>
<totfact> 0.49661949E+04</totfact>
</mgrwt>
</event>
<event>
12      1 +1.4674046e+01 2.79977800e+02 7.54677100e-03 1.09570100e-01
        2 -1    0    0  502    0 +0.0000000000e+00 +0.0000000000e+00 +6.8998416932e+02 6.8998416932e+02 0.0000000000e+00 0.0000e+00 1.0000e+00
       -2 -1    0    0    0  501 -0.0000000000e+00 -0.0000000000e+00 -1.2899269335e+02 1.2899269335e+02 0.0000000000e+00 0.0000e+00 -1.0000e+00
        6  2    1    2  502    0 -6.9729343732e+01 -2.0931375217e+02 +4.2216154757e+02 5.0672014549e+02 1.7283085770e+02 0.0000e+00 0.0000e+00
       24  2    3    3    0    0 -9.5267555118e+01 -1.1354249614e+02 +3.4168607877e+02 3.7895972596e+02 6.9952069172e+01 0.0000e+00 0.0000e+00
       -6  2    1    2    0  501 +6.9729343732e+01 +2.0931375217e+02 +1.3882992840e+02 3.1225671718e+02 1.7191881858e+02 0.0000e+00 0.0000e+00
      -24  2    5    5    0    0 +2.1778453157e+01 +1.9426018893e+02 +1.5146743651e+02 2.6022120734e+02 8.1002286411e+01 0.0000e+00 0.0000e+00
        5  1    3    3  502    0 +2.5538211386e+01 -9.5771256022e+01 +8.0475468801e+01 1.2776041953e+02 4.7000000000e+00 0.0000e+00 -1.0000e+00
      -13  1    4    4    0    0 -6.8414369092e+01 -3.3551596604e+01 +2.0037006889e+02 2.1436977408e+02 0.0000000000e+00 0.0000e+00 1.0000e+00
       14  1    4    4    0    0 -2.6853186026e+01 -7.9990899541e+01 +1.4131600988e+02 1.6458995187e+02 0.0000000000e+00 0.0000e+00 -1.0000e+00
       -5  1    5    5    0  501 +4.7950890575e+01 +1.5053563237e+01 -1.2637508104e+01 5.2035509839e+01 4.7000000000e+00 0.0000e+00 1.0000e+00
       13  1    6    6    0    0 -2.2582163249e+01 +2.8061090828e+01 +4.6081105901e+01 5.8488009340e+01 0.0000000000e+00 0.0000e+00 -1.0000e+00
      -14  1    6    6    0    0 +4.4360616406e+01 +1.6619909810e+02 +1.0538633061e+02 2.0173319800e+02 0.0000000000e+00 0.0000e+00 1.0000e+00
<mgrwt>
<rscale>  2 0.27997779E+03</rscale>
<asrwt>0</asrwt>
<pdfrwt beam="1">  1        2 0.10615141E+00 0.27997779E+03</pdfrwt>
<pdfrwt beam="2">  1       -2 0.19845030E-01 0.27997779E+03</pdfrwt>
<totfact> 0.91154882E+02</totfact>
</mgrwt>
</event>
<event>
12      3 +1.4674046e+01 2.96757400e+02 7.54677100e-03 1.08780000e-01
       21 -1    0    0  502  503 +0.0000000000e+00 +0.0000000000e+00 +8.1164513479e+02 8.1164513479e+02 0.0000000000e+00 0.0000e+00 1.0000e+00
        1 -1    0    0  504    0 -0.0000000000e+00 -0.0000000000e+00 -7.6691795133e+02 7.6691795133e+02 0.0000000000e+00 0.0000e+00 -1.0000e+00
       -6  2    1    2    0  503 -3.3086652373e+01 -2.7076753865e+02 +3.6833371423e+02 4.9468386908e+02 1.8609841143e+02 0.0000e+00 0.0000e+00
      -24  2    3    3    0    0 +2.2707973706e+01 -1.8552325798e+02 +3.2547943003e+02 3.8405743752e+02 8.1416979934e+01 0.0000e+00 0.0000e+00
        5  1    1    2  501    0 -1.7643688193e+01 +4.2423005767e+00 +1.2325052526e+01 2.2434209748e+01 4.7000000000e+00 0.0000e+00 -1.0000e+00
      -13  1    1    2    0    0 +3.7138261279e+01 +1.6998889675e+01 +4.0258579852e+01 5.7349506996e+01 0.0000000000e+00 0.0000e+00 1.0000e+00
       14  1    1    2    0    0 +2.5753179001e+02 +9.1426379296e+01 +1.5845036167e+02 3.1589226456e+02 0.0000000000e+00 0.0000e+00 -1.0000e+00
       -5  1    3    3    0  503 -5.5794626078e+01 -8.5244280667e+01 +4.2854284208e+01 1.1062643156e+02 4.7000000000e+00 0.0000e+00 1.0000e+00
       13  1    4    4    0    0 +7.3971642786e+00 -1.2903525711e+01 -4.9415293530e-01 1.4881639771e+01 0.0000000000e+00 0.0000e+00 -1.0000e+00
      -14  1    4    4    0    0 +1.5310809427e+01 -1.7261973227e+02 +3.2597358296e+02 3.6917579775e+02 0.0000000000e+00 0.0000e+00 1.0000e+00
       21  1    1    2  504  501 +3.1873633549e+01 +6.8673906190e+01 +4.7095137655e+00 7.5856531867e+01 0.0000000000e+00 0.0000e+00 -1.0000e+00
        1  1    1    2  502    0 -2.7581334427e+02 +8.9426062914e+01 -5.3935003859e+02 6.1234670387e+02 0.0000000000e+00 0.0000e+00 -1.0000e+00
<mgrwt>
<rscale>  4 0.29493581E+03</rscale>
<asrwt>0</asrwt>
<pdfrwt beam="1">  1       21 0.12486848E+00 0.29675745E+03</pdfrwt>
<pdfrwt beam="2">  1        1 0.11798738E+00 0.29675745E+03</pdfrwt>
<totfact> 0.12220401E+02</totfact>
</mgrwt>
</event>
<event>
13      2 +1.4674046e+01 3.29427300e+02 7.54677100e-03 1.07145000e-01
       21 -1    0    0  504  502 +0.0000000000e+00 +0.0000000000e+00 +3.5970511990e+02 3.5970511990e+02 0.0000000000e+00 0.0000e+00 -1.0000e+00
       21 -1    0    0  502  503 -0.0000000000e+00 -0.0000000000e+00 -5.3965563333e+02 5.3965563333e+02 0.0000000000e+00 0.0000e+00 1.0000e+00
       -6  2    1    2    0  503 +2.3375887376e+02 +1.9331584922e+02 -2.8200498539e+02 4.4901563479e+02 1.7341856845e+02 0.0000e+00 0.0000e+00
      -24  2    3    3    0    0 +2.0148256528e+02 +1.8005577615e+02 -1.6537984409e+02 3.2719156817e+02 8.1783389580e+01 0.0000e+00 0.0000e+00
        6  2    1    2  501    0 -2.4039969129e+02 -6.5038488847e+01 +3.3468089001e+01 3.0473167960e+02 1.7239276948e+02 0.0000e+00 0.0000e+00
       24  2    5    5    0    0 -2.3474960185e+02 -7.3686652469e+01 -1.1255619210e+01 2.5859043644e+02 7.8773260263e+01 0.0000e+00 0.0000e+00
        5  1    5    5  501    0 -5.6500894359e+00 +8.6481636224e+00 +4.4723708211e+01 4.6141243165e+01 4.7000000000e+00 0.0000e+00 -1.0000e+00
      -13  1    6    6    0    0 -1.0853910945e+02 -7.3303114334e+01 -1.7971371653e+01 1.3220081335e+02 0.0000000000e+00 0.0000e+00 1.0000e+00
       14  1    6    6    0    0 -1.2621049240e+02 -3.8353813538e-01 +6.7157524437e+00 1.2638962309e+02 0.0000000000e+00 0.0000e+00 -1.0000e+00
       -5  1    3    3    0  503 +3.2276308477e+01 +1.3260073070e+01 -1.1662514130e+02 1.2182406662e+02 4.7000000000e+00 0.0000e+00 1.0000e+00
       13  1    4    4    0    0 +3.9876463985e+01 +2.4994978238e+01 +2.7480584200e+00 4.7142689170e+01 0.0000000000e+00 0.0000e+00 -1.0000e+00
      -14  1    4    4    0    0 +1.6160610130e+02 +1.5506079791e+02 -1.6812790251e+02 2.8004887900e+02 0.0000000000e+00 0.0000e+00 1.0000e+00
       21  1    1    2  504  501 +6.6408175251e+00 -1.2827736037e+02 +6.8586382959e+01 1.4561343883e+02 0.0000000000e+00 0.0000e+00 -1.0000e+00
<mgrwt>
<rscale>  3 0.32929246E+03</rscale>
<asrwt>0</asrwt>
<pdfrwt beam="1">  1       21 0.55339250E-01 0.32942725E+03</pdfrwt>
<pdfrwt beam="2">  1       21 0.83023943E-01 0.32942725E+03</pdfrwt>
<totfact> 0.35692832E+03</totfact>
</mgrwt>
</event>
<event>
14      3 +1.4674046e+01 2.61976400e+02 7.54677100e-03 1.11772900e-01
       21 -1    0    0  504  503 +0.0000000000e+00 +0.0000000000e+00 +5.8351207904e+02 5.8351207904e+02 0.0000000000e+00 0.0000e+00 -1.0000e+00
        1 -1    0    0  503    0 -0.0000000000e+00 -0.0000000000e+00 -8.6187115554e+02 8.6187115554e+02 0.0000000000e+00 0.0000e+00 -1.0000e+00
       -6  2    1    2    0  502 -3.1497928044e+01 +1.0170564932e+02 -1.7369292207e+01 2.0417616059e+02 1.7334951303e+02 0.0000e+00 0.0000e+00
      -24  2    3    3    0    0 -2.6638996418e+01 +1.9084040051e+01 -6.4346654971e+01 1.0889288742e+02 8.1506639049e+01 0.0000e+00 0.0000e+00
        6  2    1    2  501    0 -1.6928624668e+02 +3.5997370772e+01 +3.2215438511e+02 4.0414656833e+02 1.7203882360e+02 0.0000e+00 0.0000e+00
       24  2    5    5    0    0 -9.8065331182e+01 +3.3249501315e+01 +8.4148313624e+01 1.5565320895e+02 8.0153878587e+01 0.0000e+00 0.0000e+00
        5  1    5    5  501    0 -7.1220915498e+01 +2.7478694571e+00 +2.3800607149e+02 2.4849335938e+02 4.7000000000e+00 0.0000e+00 -1.0000e+00
      -13  1    6    6    0    0 -1.9216865734e+01 -2.2608111108e+01 +3.6662397819e+00 2.9897423479e+01 0.0000000000e+00 0.0000e+00 1.0000e+00
       14  1    6    6    0    0 -7.8848465448e+01 +5.5857612423e+01 +8.0482073842e+01 1.2575578547e+02 0.0000000000e+00 0.0000e+00 -1.0000e+00
       -5  1    3    3    0  502 -4.8589316254e+00 +8.2621609267e+01 +4.6977362764e+01 9.5283273174e+01 4.7000000000e+00 0.0000e+00 1.0000e+00
       13  1    4    4    0    0 -8.1500989969e+00 +2.2721411277e+01 -8.0520046474e+01 8.4060481371e+01 0.0000000000e+00 0.0000e+00 -1.0000e+00
      -14  1    4    4    0    0 -1.8488897421e+01 -3.6373712259e+00 +1.6173391503e+01 2.4832406046e+01 0.0000000000e+00 0.0000e+00 1.0000e+00
       21  1    1    2  504  501 +6.4564034957e+00 -9.7044191997e+01 +9.1667422205e+01 1.3364945432e+02 0.0000000000e+00 0.0000e+00 -1.0000e+00
        1  1    1    2  502    0 +1.9432777123e+02 -4.0658828094e+01 -6.7481159161e+02 7.0341105133e+02 0.0000000000e+00 0.0000e+00 -1.0000e+00
<mgrwt>
<rscale>  4 0.24312433E+03</rscale>
<asrwt>0</asrwt>
<pdfrwt beam="1">  1       21 0.89771090E-01 0.26197640E+03</pdfrwt>
<pdfrwt beam="2">  1        1 0.13259556E+00 0.26197640E+03</pdfrwt>
<totfact> 0.23158483E+02</totfact>
</mgrwt>
</event>
<event>
14      3 +1.4674046e+01 2.21350200e+02 7.54677100e-03 1.13288000e-01
       -2 -1    0    0    0  501 -0.0000000000e+00 +0.0000000000e+00 +3.1088040934e+02 3.1088040934e+02 0.0000000000e+00 0.0000e+00 1.0000e+00
        2 -1    0    0  504    0 +0.0000000000e+00 -0.0000000000e+00 -3.4906084768e+02 3.4906084768e+02 0.0000000000e+00 0.0000e+00 -1.0000e+00
       -6  2    1    2    0  503 -5.3354990755e+01 -9.5440667742e+01 +1.7708651347e+02 2.7122569464e+02 1.7391971735e+02 0.0000e+00 0.0000e+00
      -24  2    3    3    0    0 +2.5088671762e+01 -2.8240574695e+01 +1.3005236587e+02 1.5763184914e+02 8.0667282623e+01 0.0000e+00 0.0000e+00
        6  2    1    2  504    0 +7.1569565209e+01 +1.2453232873e+02 -2.5284184800e+02 3.3782383138e+02 1.7194603046e+02 0.0000e+00 0.0000e+00
       24  2    5    5    0    0 -1.6049716945e+01 +9.5715221079e+01 -1.2112537670e+02 1.7530915453e+02 8.1504268730e+01 0.0000e+00 0.0000e+00
        5  1    5    5  502    0 +5.5989171468e+01 +1.9785887828e+01 -1.0233319621e+02 1.1840794621e+02 4.7000000000e+00 0.0000e+00 -1.0000e+00
      -13  1    6    6    0    0 +1.9117030177e+01 +5.5203471133e+01 -2.1672913632e+01 6.2310506764e+01 0.0000000000e+00 0.0000e+00 1.0000e+00
       14  1    6    6    0    0 -3.5166747122e+01 +4.0511749946e+01 -9.9452463066e+01 1.1299864777e+02 0.0000000000e+00 0.0000e+00 -1.0000e+00
       -5  1    3    3    0  503 -7.8443662517e+01 -6.7200093047e+01 +4.7034147600e+01 1.1359384550e+02 4.7000000000e+00 0.0000e+00 1.0000e+00
       13  1    4    4    0    0 +3.2606584062e+00 -5.4572363918e+01 +8.5092031041e+01 1.0114063745e+02 0.0000000000e+00 0.0000e+00 -1.0000e+00
      -14  1    4    4    0    0 +2.1828013356e+01 +2.6331789222e+01 +4.4960334828e+01 5.6491211693e+01 0.0000000000e+00 0.0000e+00 1.0000e+00
       21  1    1    2  503  501 -1.8214574454e+01 -2.9091660984e+01 +3.7574896181e+01 5.0891731002e+01 0.0000000000e+00 0.0000e+00 -1.0000e+00
       21  1    5    5  504  502 +3.1630110686e+01 +9.0312198188e+00 -2.9383275087e+01 4.4106730646e+01 0.0000000000e+00 0.0000e+00 -1.0000e+00
<mgrwt>
<rscale>  4 0.22135016E+03</rscale>
<asrwt>0</asrwt>
<pdfrwt beam="2">  1        2 0.53701669E-01 0.22135016E+03</pdfrwt>
<pdfrwt beam="1">  1       -2 0.47827755E-01 0.22135016E+03</pdfrwt>
<totfact> 0.39185992E+02</totfact>
</mgrwt>
</event>
<event>
14      3 +1.4674046e+01 3.45972300e+02 7.54677100e-03 1.08042300e-01
       21 -1    0    0  501  503 +0.0000000000e+00 +0.0000000000e+00 +1.4485940098e+02 1.4485940098e+02 0.0000000000e+00 0.0000e+00 1.0000e+00
        2 -1    0    0  504    0 -0.0000000000e+00 -0.0000000000e+00 -3.3736863803e+03 3.3736863803e+03 0.0000000000e+00 0.0000e+00 1.0000e+00
       -6  2    1    2    0  502 +3.4270665869e+02 +2.5326633899e+02 -9.3556858955e+02 1.0421143883e+03 1.7065204423e+02 0.0000e+00 0.0000e+00
      -24  2    3    3    0    0 +1.7497687296e+02 +2.1161031637e+02 -6.0464744023e+02 6.6875209467e+02 7.8962048431e+01 0.0000e+00 0.0000e+00
        6  2    1    2  501    0 -5.9890878208e+01 -1.2295605068e+02 -2.8017911537e+02 3.5602805491e+02 1.7190268032e+02 0.0000e+00 0.0000e+00
       24  2    5    5    0    0 -4.7737011074e+01 -1.4725916771e+02 -1.7360619045e+02 2.4594519380e+02 7.9911477827e+01 0.0000e+00 0.0000e+00
        5  1    5    5  501    0 -1.2153867134e+01 +2.4303117033e+01 -1.0657292492e+02 1.1008286111e+02 4.7000000000e+00 0.0000e+00 -1.0000e+00
      -13  1    6    6    0    0 +1.8171306055e+01 -4.9136414087e+01 -3.1600201957e+01 6.1181339613e+01 0.0000000000e+00 0.0000e+00 1.0000e+00
       14  1    6    6    0    0 -6.5908317129e+01 -9.8122753625e+01 -1.4200598850e+02 1.8476385419e+02 0.0000000000e+00 0.0000e+00 -1.0000e+00
       -5  1    3    3    0  502 +1.6772978573e+02 +4.1656022618e+01 -3.3092114932e+02 3.7336229364e+02 4.7000000000e+00 0.0000e+00 1.0000e+00
       13  1    4    4    0    0 +1.4386632576e+00 +2.4963023864e+01 -1.0406225260e+02 1.0702417824e+02 0.0000000000e+00 0.0000e+00 -1.0000e+00
      -14  1    4    4    0    0 +1.7353820970e+02 +1.8664729251e+02 -5.0058518763e+02 5.6172791643e+02 0.0000000000e+00 0.0000e+00 1.0000e+00
       21  1    1    2  504  503 -4.0896625483e+01 +8.8691460764e+00 +3.4287839785e+01 5.4100385259e+01 0.0000000000e+00 0.0000e+00 1.0000e+00
        2  1    1    2  502    0 -2.4191915500e+02 -1.3917943439e+02 -2.0473671142e+03 2.0663029528e+03 0.0000000000e+00 0.0000e+00 1.0000e+00
<mgrwt>
<rscale>  4 0.30983992E+03</rscale>
<asrwt>0</asrwt>
<pdfrwt beam="1">  1       21 0.22286063E-01 0.34597229E+03</pdfrwt>
<pdfrwt beam="2">  1        2 0.51902864E+00 0.34597229E+03</pdfrwt>
<totfact> 0.27445044E+02</totfact>
</mgrwt>
</event>
<event>
14      3 +1.4674046e+01 2.34793800e+02 7.54677100e-03 1.12344300e-01
       21 -1    0    0  503  502 +0.0000000000e+00 +0.0000000000e+00 +1.1008404135e+03 1.1008404135e+03 0.0000000000e+00 0.0000e+00 1.0000e+00
       21 -1    0    0  505  503 -0.0000000000e+00 -0.0000000000e+00 -6.6705695124e+01 6.6705695124e+01 0.0000000000e+00 0.0000e+00 1.0000e+00
       -6  2    1    2    0  502 -1.4424285983e+02 +1.0117708906e+02 +3.0783010755e+02 3.9394898918e+02 1.7144569111e+02 0.0000e+00 0.0000e+00
      -24  2    3    3    0    0 -9.6273381142e+01 -9.8192660175e+00 +1.5848924408e+02 2.0173544848e+02 7.8824924891e+01 0.0000e+00 0.0000e+00
        6  2    1    2  504    0 +1.1748123565e+02 -9.6714181891e+01 +6.9548658981e+02 7.3253798540e+02 1.7249588324e+02 0.0000e+00 0.0000e+00
       24  2    5    5    0    0 -8.4026491520e+00 -4.4456786337e+01 +2.1005232632e+02 2.2730658760e+02 7.4157228962e+01 0.0000e+00 0.0000e+00
        5  1    5    5  501    0 +4.5757166558e+01 -3.5667131276e+01 +2.0500781736e+02 2.1311067013e+02 4.7000000000e+00 0.0000e+00 -1.0000e+00
      -13  1    6    6    0    0 +2.6215337120e+01 -1.4802460960e+00 +3.4951308774e+01 4.3715317839e+01 0.0000000000e+00 0.0000e+00 1.0000e+00
       14  1    6    6    0    0 -3.4617986272e+01 -4.2976540241e+01 +1.7510101755e+02 1.8359126976e+02 0.0000000000e+00 0.0000e+00 -1.0000e+00
       -5  1    3    3    0  502 -4.7969478685e+01 +1.1099635507e+02 +1.4934086346e+02 1.9221354069e+02 4.7000000000e+00 0.0000e+00 -1.0000e+00
       13  1    4    4    0    0 -3.3682369768e+01 -3.6016064472e+01 +3.3811649925e+01 5.9790355442e+01 0.0000000000e+00 0.0000e+00 -1.0000e+00
      -14  1    4    4    0    0 -6.2591011373e+01 +2.6196798455e+01 +1.2467759416e+02 1.4194509304e+02 0.0000000000e+00 0.0000e+00 1.0000e+00
       21  1    5    5  504  501 +8.0126718243e+01 -1.6590264278e+01 +2.8042644614e+02 2.9212072767e+02 0.0000000000e+00 0.0000e+00 -1.0000e+00
       21  1    1    2  505  504 +2.6761624178e+01 -4.4629071647e+00 +3.0818020993e+01 4.1059134025e+01 0.0000000000e+00 0.0000e+00 -1.0000e+00
<mgrwt>
<rscale>  4 0.23460090E+03</rscale>
<asrwt>0</asrwt>
<pdfrwt beam="1">  1       21 0.16936005E+00 0.23479375E+03</pdfrwt>
<pdfrwt beam="2">  1       21 0.10262415E-01 0.23479375E+03</pdfrwt>
<totfact> 0.16237715E+04</totfact>
</mgrwt>
</event>
<event>
13      2 +1.4674046e+01 3.40738300e+02 7.54677100e-03 1.06655900e-01
       21 -1    0    0  501  502 +0.0000000000e+00 +0.0000000000e+00 +1.7758923562e+02 1.7758923562e+02 0.0000000000e+00 0.0000e+00 1.0000e+00
       21 -1    0    0  504  503 -0.0000000000e+00 -0.0000000000e+00 -8.7207359121e+02 8.7207359121e+02 0.0000000000e+00 0.0000e+00 -1.0000e+00
       -6  2    1    2    0  503 +1.6034748150e+02 -2.8312282555e+02 -1.9532479875e+02 4.1760850711e+02 1.7428493632e+02 0.0000e+00 0.0000e+00
      -24  2    3    3    0    0 +1.5219079600e+02 -1.6043720185e+02 -8.1767743847e+01 2.5017019459e+02 8.3648240861e+01 0.0000e+00 0.0000e+00
        6  2    1    2  501    0 -1.4339287785e+02 +2.0432350859e+02 -3.5724185376e+02 4.6884456087e+02 1.7286950744e+02 0.0000e+00 0.0000e+00
       24  2    5    5    0    0 -4.9974207428e+01 +1.7892353418e+02 -2.7582428802e+02 3.4226211069e+02 8.0952220839e+01 0.0000e+00 0.0000e+00
        5  1    5    5  501    0 -9.3418670424e+01 +2.5399974408e+01 -8.1417565738e+01 1.2658245018e+02 4.7000000000e+00 0.0000e+00 -1.0000e+00
      -13  1    6    6    0    0 +3.5805834978e+00 +6.3497791723e+01 -4.2486800664e+01 7.6484759022e+01 0.0000000000e+00 0.0000e+00 1.0000e+00
       14  1    6    6    0    0 -5.3554790925e+01 +1.1542574246e+02 -2.3333748736e+02 2.6577735167e+02 0.0000000000e+00 0.0000e+00 -1.0000e+00
       -5  1    3    3    0  503 +8.1566854962e+00 -1.2268562370e+02 -1.1355705490e+02 1.6743831252e+02 4.7000000000e+00 0.0000e+00 1.0000e+00
       13  1    4    4    0    0 +3.0025263423e+01 +1.8650085315e+00 +2.6223581424e+00 3.0197209518e+01 0.0000000000e+00 0.0000e+00 -1.0000e+00
      -14  1    4    4    0    0 +1.2216553258e+02 -1.6230221038e+02 -8.4390101990e+01 2.1997298507e+02 0.0000000000e+00 0.0000e+00 1.0000e+00
       21  1    1    2  504  502 -1.6954603649e+01 +7.8799316963e+01 -1.4191770308e+02 1.6320975885e+02 0.0000000000e+00 0.0000e+00 -1.0000e+00
<mgrwt>
<rscale>  3 0.34055767E+03</rscale>
<asrwt>0</asrwt>
<pdfrwt beam="1">  1       21 0.27321421E-01 0.34073826E+03</pdfrwt>
<pdfrwt beam="2">  1       21 0.13416517E+00 0.34073826E+03</pdfrwt>
<totfact> 0.46465268E+03</totfact>
</mgrwt>
</event>
<event>
14      3 +1.4674046e+01 5.20510900e+02 7.54677100e-03 1.00856000e-01
       21 -1    0    0  504  502 +0.0000000000e+00 +0.0000000000e+00 +1.4853060421e+03 1.4853060421e+03 0.0000000000e+00 0.0000e+00 1.0000e+00
       21 -1    0    0  501  503 -0.0000000000e+00 -0.0000000000e+00 -4.8507997377e+02 4.8507997377e+02 0.0000000000e+00 0.0000e+00 1.0000e+00
        6  2    1    2  501    0 -2.4593544368e+02 +4.6375345666e+02 -2.1401570578e+02 5.9264223644e+02 1.7283109406e+02 0.0000e+00 0.0000e+00
       24  2    3    3    0    0 -1.7318644041e+02 +4.2567003779e+02 -2.0645694837e+02 5.1004690313e+02 7.9591756198e+01 0.0000e+00 0.0000e+00
       -6  2    1    2    0  502 +1.9099167268e+02 -3.9624621862e+02 +8.5172032833e+02 9.7405890516e+02 1.7284197471e+02 0.0000e+00 0.0000e+00
      -24  2    5    5    0    0 +2.4652411256e+01 -1.5199624822e+02 +2.5590424213e+02 3.0896816209e+02 7.9143813367e+01 0.0000e+00 0.0000e+00
        5  1    3    3  501    0 -7.2749003275e+01 +3.8083418867e+01 -7.5587574064e+00 8.2595333304e+01 4.7000000000e+00 0.0000e+00 -1.0000e+00
      -13  1    4    4    0    0 -1.0311486250e+02 +3.0121997885e+02 -1.0649569985e+02 3.3571935394e+02 0.0000000000e+00 0.0000e+00 1.0000e+00
       14  1    4    4    0    0 -7.0071577907e+01 +1.2445005894e+02 -9.9961248525e+01 1.7432754919e+02 0.0000000000e+00 0.0000e+00 -1.0000e+00
       -5  1    5    5    0  502 +1.6633926143e+02 -2.4424997040e+02 +5.9581608620e+02 6.6509074307e+02 4.7000000000e+00 0.0000e+00 1.0000e+00
       13  1    6    6    0    0 +7.3918290841e+00 -9.1894339092e+01 +2.1583661153e+02 2.3470119636e+02 0.0000000000e+00 0.0000e+00 -1.0000e+00
      -14  1    6    6    0    0 +1.7260582172e+01 -6.0101909128e+01 +4.0067630594e+01 7.4266965732e+01 0.0000000000e+00 0.0000e+00 1.0000e+00
       21  1    1    2  504  505 +7.3184042538e+01 -2.6019325316e+01 +3.4729537978e+02 3.5587496427e+02 0.0000000000e+00 0.0000e+00 1.0000e+00
       21  1    1    2  505  503 -1.8240271539e+01 -4.1487912718e+01 +1.5226065975e+01 4.7809909983e+01 0.0000000000e+00 0.0000e+00 -1.0000e+00
<mgrwt>
<rscale>  4 0.52050996E+03</rscale>
<asrwt>0</asrwt>
<pdfrwt beam="1">  1       21 0.22850862E+00 0.52051087E+03</pdfrwt>
<pdfrwt beam="2">  1       21 0.74627689E-01 0.52051087E+03</pdfrwt>
<totfact> 0.10948952E+02</totfact>
</mgrwt>
</event>
<event>
14      3 +1.4674046e+01 1.80966000e+02 7.54677100e-03 1.16693500e-01
       21 -1    0    0  504  502 +0.0000000000e+00 +0.0000000000e+00 +1.5001628047e+02 1.5001628047e+02 0.0000000000e+00 0.0000e+00 1.0000e+00
       21 -1    0    0  501  503 -0.0000000000e+00 -0.0000000000e+00 -4.5360972434e+02 4.5360972434e+02 0.0000000000e+00 0.0000e+00 1.0000e+00
        6  2    1    2  501    0 +1.3832280332e+01 -2.5995369740e+01 -8.0550214511e+01 1.9386705384e+02 1.7386490813e+02 0.0000e+00 0.0000e+00
       24  2    3    3    0    0 -4.1668610768e+01 +2.8426624509e+01 -2.4341832375e+01 9.7827610936e+01 8.0208294794e+01 0.0000e+00 0.0000e+00
       -6  2    1    2    0  502 -7.3739775763e+01 -1.1746286934e+01 -2.0475269388e+02 2.7862714122e+02 1.7359115298e+02 0.0000e+00 0.0000e+00
      -24  2    5    5    0    0 +1.9611502301e+01 -2.8875688544e+01 -1.3474043174e+02 1.6059458485e+02 8.0107554732e+01 0.0000e+00 0.0000e+00
        5  1    3    3  501    0 +5.5500891100e+01 -5.4421994249e+01 -5.6208382136e+01 9.6039442904e+01 4.7000000000e+00 0.0000e+00 -1.0000e+00
      -13  1    4    4    0    0 +2.3609880118e+01 +6.7705739339e+00 +8.6575972222e-01 2.4576750202e+01 0.0000000000e+00 0.0000e+00 1.0000e+00
       14  1    4    4    0    0 -6.5278490886e+01 +2.1656050575e+01 -2.5207592098e+01 7.3250860734e+01 0.0000000000e+00 0.0000e+00 -1.0000e+00
       -5  1    5    5    0  502 -9.3351278064e+01 +1.7129401610e+01 -7.0012262134e+01 1.1803255638e+02 4.7000000000e+00 0.0000e+00 1.0000e+00
       13  1    6    6    0    0 +3.1016661770e+01 +1.8000473780e+01 -3.6618150460e+01 5.1253676032e+01 0.0000000000e+00 0.0000e+00 -1.0000e+00
      -14  1    6    6    0    0 -1.1405159470e+01 -4.6876162324e+01 -9.8122281282e+01 1.0934090882e+02 0.0000000000e+00 0.0000e+00 1.0000e+00
       21  1    1    2  504  505 +1.3335912179e+01 -2.9225258352e+01 +2.3191632540e+01 3.9620879587e+01 0.0000000000e+00 0.0000e+00 1.0000e+00
       21  1    1    2  505  503 +4.6571583252e+01 +6.6966915027e+01 -4.1482168029e+01 9.1510930162e+01 0.0000000000e+00 0.0000e+00 1.0000e+00
<mgrwt>
<rscale>  4 0.18090016E+03</rscale>
<asrwt>0</asrwt>
<pdfrwt beam="1">  1       21 0.23079428E-01 0.18096595E+03</pdfrwt>
<pdfrwt beam="2">  1       21 0.69786112E-01 0.18096595E+03</pdfrwt>
<totfact> 0.33098749E+04</totfact>
</mgrwt>
</event>
<event>
12      1 +1.4674046e+01 1.93677500e+02 7.54677100e-03 1.15610500e-01
       21 -1    0    0  501  502 +0.0000000000e+00 +0.0000000000e+00 +4.2710020761e+02 4.2710020761e+02 0.0000000000e+00 0.0000e+00 1.0000e+00
       21 -1    0    0  502  503 -0.0000000000e+00 -0.0000000000e+00 -1.8418684948e+02 1.8418684948e+02 0.0000000000e+00 0.0000e+00 1.0000e+00
       -6  2    1    2    0  503 -8.7752565323e+01 -2.1645552033e+00 -1.0234721735e+02 2.1541354922e+02 1.6799656623e+02 0.0000e+00 0.0000e+00
      -24  2    3    3    0    0 -2.0035558864e+01 -2.1277446942e+01 -1.1472177091e+02 1.4381665564e+02 8.1657775821e+01 0.0000e+00 0.0000e+00
        6  2    1    2  501    0 +8.7752565323e+01 +2.1645552033e+00 +3.4526057548e+02 3.9587350788e+02 1.7264348015e+02 0.0000e+00 0.0000e+00
       24  2    5    5    0    0 +3.4166858683e+01 +5.5862889250e+01 +1.3071699663e+02 1.6826424563e+02 8.3293976503e+01 0.0000e+00 0.0000e+00
        5  1    5    5  501    0 +5.3585706640e+01 -5.3698334046e+01 +2.1454357886e+02 2.2760926226e+02 4.7000000000e+00 0.0000e+00 -1.0000e+00
      -13  1    6    6    0    0 -2.1700327960e+01 +4.0369632421e+01 +7.4748920760e+01 8.7681312776e+01 0.0000000000e+00 0.0000e+00 1.0000e+00
       14  1    6    6    0    0 +5.5867186643e+01 +1.5493256829e+01 +5.5968075866e+01 8.0582932850e+01 0.0000000000e+00 0.0000e+00 -1.0000e+00
       -5  1    3    3    0  503 -6.7717006459e+01 +1.9112891738e+01 +1.2374553554e+01 7.1596893578e+01 4.7000000000e+00 0.0000e+00 1.0000e+00
       13  1    4    4    0    0 -3.8258917573e+01 +8.1340057753e+00 -2.2060157010e+01 4.4906094810e+01 0.0000000000e+00 0.0000e+00 -1.0000e+00
      -14  1    4    4    0    0 +1.8223358709e+01 -2.9411452717e+01 -9.2661613896e+01 9.8910560828e+01 0.0000000000e+00 0.0000e+00 1.0000e+00
<mgrwt>
<rscale>  2 0.19263649E+03</rscale>
<asrwt>0</asrwt>
<pdfrwt beam="1">  1       21 0.65707724E-01 0.19367749E+03</pdfrwt>
<pdfrwt beam="2">  1       21 0.28336438E-01 0.19367749E+03</pdfrwt>
<totfact> 0.25328919E+04</totfact>
</mgrwt>
</event>
<event>
14      3 +1.4674046e+01 2.85922300e+02 7.54677100e-03 1.09272200e-01
       21 -1    0    0  502  503 +0.0000000000e+00 +0.0000000000e+00 +1.4670168303e+02 1.4670168303e+02 0.0000000000e+00 0.0000e+00 1.0000e+00
        1 -1    0    0  501    0 -0.0000000000e+00 -0.0000000000e+00 -1.6279746511e+03 1.6279746511e+03 0.0000000000e+00 0.0000e+00 1.0000e+00
        6  2    1    2  501    0 +3.1713783803e+01 +1.9956390153e+02 -3.9553224895e+02 4.7630044711e+02 1.7200244499e+02 0.0000e+00 0.0000e+00
       24  2    3    3    0    0 -1.2272166187e+01 +2.0456026443e+02 -3.3799608274e+02 4.0355274707e+02 8.1350844319e+01 0.0000e+00 0.0000e+00
       -6  2    1    2    0  504 -1.2167086552e+02 -2.2908284832e+02 -5.2189689665e+02 6.0844278599e+02 1.7476699398e+02 0.0000e+00 0.0000e+00
      -24  2    5    5    0    0 -1.4817642596e+02 -1.5901423737e+02 -3.3918972950e+02 4.1091771441e+02 8.1005645016e+01 0.0000e+00 0.0000e+00
        5  1    3    3  501    0 +4.3985949990e+01 -4.9963629077e+00 -5.7536166207e+01 7.2747700037e+01 4.7000000000e+00 0.0000e+00 -1.0000e+00
      -13  1    4    4    0    0 +1.4636411371e+01 +3.9011540105e+01 -2.5384853417e+01 4.8790527587e+01 0.0000000000e+00 0.0000e+00 1.0000e+00
       14  1    4    4    0    0 -2.6908577559e+01 +1.6554872433e+02 -3.1261122932e+02 3.5476221948e+02 0.0000000000e+00 0.0000e+00 -1.0000e+00
       -5  1    5    5    0  504 +2.6505560438e+01 -7.0068610953e+01 -1.8270716715e+02 1.9752507158e+02 4.7000000000e+00 0.0000e+00 1.0000e+00
       13  1    6    6    0    0 -9.5885175581e+01 -1.2054347661e+02 -2.9372900580e+02 3.3166462805e+02 0.0000000000e+00 0.0000e+00 -1.0000e+00
      -14  1    6    6    0    0 -5.2291250378e+01 -3.8470760754e+01 -4.5460723703e+01 7.9253086367e+01 0.0000000000e+00 0.0000e+00 1.0000e+00
       21  1    1    2  504  503 +1.4266735573e+02 -2.5608652267e+01 -2.6681409432e+01 1.4738275025e+02 0.0000000000e+00 0.0000e+00 1.0000e+00
        1  1    1    2  502    0 -5.2710274007e+01 +5.5127599062e+01 -5.3716241302e+02 5.4255035078e+02 0.0000000000e+00 0.0000e+00 1.0000e+00
<mgrwt>
<rscale>  4 0.28550099E+03</rscale>
<asrwt>0</asrwt>
<pdfrwt beam="1">  1       21 0.22569488E-01 0.28592227E+03</pdfrwt>
<pdfrwt beam="2">  1        1 0.25045766E+00 0.28592227E+03</pdfrwt>
<totfact> 0.11765413E+03</totfact>
</mgrwt>
</event>
<event>
12      1 +1.4674046e+01 2.32784400e+02 7.54677100e-03 1.12557300e-01
       21 -1    0    0  503  502 +0.0000000000e+00 +0.0000000000e+00 +7.5678332038e+02 7.5678332038e+02 0.0000000000e+00 0.0000e+00 1.0000e+00
       21 -1    0    0  501  503 -0.0000000000e+00 -0.0000000000e+00 -7.2343742241e+01 7.2343742241e+01 0.0000000000e+00 0.0000e+00 1.0000e+00
        6  2    1    2  501    0 +1.4980047728e+02 +2.8622720563e+00 +4.1930122668e+02 4.7958532933e+02 1.7815777789e+02 0.0000e+00 0.0000e+00
       24  2    3    3    0    0 +7.5827048561e+01 -5.2289636574e+01 +3.2801490731e+02 3.4970429420e+02 7.8837596233e+01 0.0000e+00 0.0000e+00
       -6  2    1    2    0  502 -1.4980047728e+02 -2.8622720563e+00 +2.6513835146e+02 3.4954173329e+02 1.7155961733e+02 0.0000e+00 0.0000e+00
      -24  2    5    5    0    0 -1.3505024736e+02 -3.9267751994e+01 +1.3983405296e+02 2.1814087532e+02 9.0836960866e+01 0.0000e+00 0.0000e+00
        5  1    3    3  501    0 +7.3973428724e+01 +5.5151908630e+01 +9.1286319371e+01 1.2988103513e+02 4.7000000000e+00 0.0000e+00 -1.0000e+00
      -13  1    4    4    0    0 +3.4022726225e+01 -3.0204790362e+01 +4.9608138071e+01 6.7311534104e+01 0.0000000000e+00 0.0000e+00 1.0000e+00
       14  1    4    4    0    0 +4.1804322336e+01 -2.2084846212e+01 +2.7840676923e+02 2.8239276009e+02 0.0000000000e+00 0.0000e+00 -1.0000e+00
       -5  1    5    5    0  502 -1.4750229924e+01 +3.6405479938e+01 +1.2530429850e+02 1.3140085797e+02 4.7000000000e+00 0.0000e+00 1.0000e+00
       13  1    6    6    0    0 -7.2578640129e+01 -2.7529992815e+01 +1.3328252464e+02 1.5423939471e+02 0.0000000000e+00 0.0000e+00 -1.0000e+00
      -14  1    6    6    0    0 -6.2471607231e+01 -1.1737759180e+01 +6.5515283235e+00 6.3901480609e+01 0.0000000000e+00 0.0000e+00 1.0000e+00
<mgrwt>
<rscale>  2 0.23152160E+03</rscale>
<asrwt>0</asrwt>
<pdfrwt beam="1">  1       21 0.11642820E+00 0.23278438E+03</pdfrwt>
<pdfrwt beam="2">  1       21 0.11129807E-01 0.23278438E+03</pdfrwt>
<totfact> 0.37375229E+04</totfact>
</mgrwt>
</event>
<event>
12      1 +1.4674046e+01 2.17485600e+02 7.54677100e-03 1.13589000e-01
       21 -1    0    0  503  502 +0.0000000000e+00 +0.0000000000e+00 +3.0754235646e+02 3.0754235646e+02 0.0000000000e+00 0.0000e+00 1.0000e+00
       21 -1    0    0  501  503 -0.0000000000e+00 -0.0000000000e+00 -7.6740178346e+02 7.6740178346e+02 0.0000000000e+00 0.0000e+00 1.0000e+00
        6  2    1    2  501    0 -1.2244662159e+02 +4.7471632077e+01 -7.1077366854e+02 7.4330289322e+02 1.7335873841e+02 0.0000e+00 0.0000e+00
       24  2    3    3    0    0 -6.4531216899e+01 -3.8679450130e+01 -2.9778228612e+02 3.1743885973e+02 8.0204500628e+01 0.0000e+00 0.0000e+00
       -6  2    1    2    0  502 +1.2244662159e+02 -4.7471632077e+01 +2.5091424155e+02 3.3164124671e+02 1.7257238746e+02 0.0000e+00 0.0000e+00
      -24  2    5    5    0    0 +1.1327567361e+02 -4.4898366770e+01 +2.7153876718e+02 3.0844234503e+02 8.0969973192e+01 0.0000e+00 0.0000e+00
        5  1    3    3  501    0 -5.7915404687e+01 +8.6151082207e+01 -4.1299138242e+02 4.2586403349e+02 4.7000000000e+00 0.0000e+00 -1.0000e+00
      -13  1    4    4    0    0 -7.7973110183e+01 -1.0460626775e+01 -2.0918460381e+02 2.2348921472e+02 0.0000000000e+00 0.0000e+00 1.0000e+00
       14  1    4    4    0    0 +1.3441893284e+01 -2.8218823355e+01 -8.8597682313e+01 9.3949645012e+01 0.0000000000e+00 0.0000e+00 -1.0000e+00
       -5  1    5    5    0  502 +9.1709479801e+00 -2.5732653075e+00 -2.0624525631e+01 2.3198901671e+01 4.7000000000e+00 0.0000e+00 1.0000e+00
       13  1    6    6    0    0 +6.0604123899e+01 -1.0526610042e+01 +5.3528958851e+01 8.1541515734e+01 0.0000000000e+00 0.0000e+00 -1.0000e+00
      -14  1    6    6    0    0 +5.2671549707e+01 -3.4371756727e+01 +2.1800980833e+02 2.2690082930e+02 0.0000000000e+00 0.0000e+00 1.0000e+00
<mgrwt>
<rscale>  2 0.21732885E+03</rscale>
<asrwt>0</asrwt>
<pdfrwt beam="1">  1       21 0.47314210E-01 0.21748559E+03</pdfrwt>
<pdfrwt beam="2">  1       21 0.11806181E+00 0.21748559E+03</pdfrwt>
<totfact> 0.22990439E+03</totfact>
</mgrwt>
</event>
<event>
12      1 +1.4674046e+01 2.31022100e+02 7.54677100e-03 1.12616600e-01
       21 -1    0    0  501  502 +0.0000000000e+00 +0.0000000000e+00 +3.1327925253e+02 3.1327925253e+02 0.0000000000e+00 0.0000e+00 -1.0000e+00
       21 -1    0    0  502  503 -0.0000000000e+00 -0.0000000000e+00 -1.7430480035e+02 1.7430480035e+02 0.0000000000e+00 0.0000e+00 -1.0000e+00
       -6  2    1    2    0  503 +7.2998836456e+01 -1.3500802664e+02 +1.1043143477e+02 2.5480535295e+02 1.7080593878e+02 0.0000e+00 0.0000e+00
      -24  2    3    3    0    0 -7.3337423031e+00 -1.2239849516e+02 +5.3601111503e+01 1.5548718171e+02 7.9170759313e+01 0.0000e+00 0.0000e+00
        6  2    1    2  501    0 -7.2998836456e+01 +1.3500802664e+02 +2.8543017413e+01 2.3277869993e+02 1.7267084849e+02 0.0000e+00 0.0000e+00
       24  2    5    5    0    0 -5.1606532827e+01 +2.0972722856e+01 -2.9329273287e+01 1.0303675145e+02 8.1567619458e+01 0.0000e+00 0.0000e+00
        5  1    5    5  501    0 -2.1392303629e+01 +1.1403530379e+02 +5.7872290700e+01 1.2974194848e+02 4.7000000000e+00 0.0000e+00 -1.0000e+00
      -13  1    6    6    0    0 -5.3302718235e+00 -2.9537887435e+01 -1.2373677931e+01 3.2465466228e+01 0.0000000000e+00 0.0000e+00 1.0000e+00
       14  1    6    6    0    0 -4.6276261004e+01 +5.0510610291e+01 -1.6955595356e+01 7.0571285226e+01 0.0000000000e+00 0.0000e+00 -1.0000e+00
       -5  1    3    3    0  503 +8.0332578759e+01 -1.2609531486e+01 +5.6830323271e+01 9.9318171235e+01 4.7000000000e+00 0.0000e+00 1.0000e+00
       13  1    4    4    0    0 +2.9665205303e+01 -5.2650229780e+01 +4.6428275054e+01 7.6207977443e+01 0.0000000000e+00 0.0000e+00 -1.0000e+00
      -14  1    4    4    0    0 -3.6998947606e+01 -6.9748265377e+01 +7.1728364493e+00 7.9279204271e+01 0.0000000000e+00 0.0000e+00 1.0000e+00
<mgrwt>
<rscale>  2 0.23067370E+03</rscale>
<asrwt>0</asrwt>
<pdfrwt beam="1">  1       21 0.48196808E-01 0.23102212E+03</pdfrwt>
<pdfrwt beam="2">  1       21 0.26816123E-01 0.23102212E+03</pdfrwt>
<totfact> 0.53519882E+04</totfact>
</mgrwt>
</event>
<event>
12      1 +1.4674046e+01 4.05251000e+02 7.54677100e-03 1.04205000e-01
       21 -1    0    0  503  502 +0.0000000000e+00 +0.0000000000e+00 +2.3403210139e+02 2.3403210139e+02 0.0000000000e+00 0.0000e+00 1.0000e+00
       21 -1    0    0  501  503 -0.0000000000e+00 -0.0000000000e+00 -7.2546398275e+02 7.2546398275e+02 0.0000000000e+00 0.0000e+00 1.0000e+00
        6  2    1    2  501    0 -1.8213882495e+02 -3.1768231119e+02 -3.3492476727e+02 5.2507368267e+02 1.7155515179e+02 0.0000e+00 0.0000e+00
       24  2    3    3    0    0 -1.6425751349e+02 -2.6983196892e+02 -1.9991175598e+02 3.8064376966e+02 7.1659940077e+01 0.0000e+00 0.0000e+00
       -6  2    1    2    0  502 +1.8213882495e+02 +3.1768231119e+02 -1.5650711409e+02 4.3442240147e+02 1.7358497556e+02 0.0000e+00 0.0000e+00
      -24  2    5    5    0    0 +6.7741727567e+01 +2.0333058683e+02 -1.4568354203e+02 2.7224270957e+02 8.3427389372e+01 0.0000e+00 0.0000e+00
        5  1    3    3  501    0 -1.7881311458e+01 -4.7850342273e+01 -1.3501301129e+02 1.4442991301e+02 4.7000000000e+00 0.0000e+00 -1.0000e+00
      -13  1    4    4    0    0 -1.4880715893e+02 -2.2966107372e+02 -1.9760304771e+02 3.3754221040e+02 0.0000000000e+00 0.0000e+00 1.0000e+00
       14  1    4    4    0    0 -1.5450354559e+01 -4.0170895199e+01 -2.3087082632e+00 4.3101559263e+01 0.0000000000e+00 0.0000e+00 -1.0000e+00
       -5  1    5    5    0  502 +1.1439709738e+02 +1.1435172436e+02 -1.0823572057e+01 1.6217969191e+02 4.7000000000e+00 0.0000e+00 1.0000e+00
       13  1    6    6    0    0 +6.3434617598e+01 +6.5823063021e+01 -7.0669061345e+01 1.1554541344e+02 0.0000000000e+00 0.0000e+00 -1.0000e+00
      -14  1    6    6    0    0 +4.3071099691e+00 +1.3750752381e+02 -7.5014480689e+01 1.5669729613e+02 0.0000000000e+00 0.0000e+00 1.0000e+00
<mgrwt>
<rscale>  2 0.40503447E+03</rscale>
<asrwt>0</asrwt>
<pdfrwt beam="1">  1       21 0.36004939E-01 0.40525097E+03</pdfrwt>
<pdfrwt beam="2">  1       21 0.11160984E+00 0.40525097E+03</pdfrwt>
<totfact> 0.41647317E+03</totfact>
</mgrwt>
</event>
<event>
12      1 +1.4674046e+01 2.00786800e+02 7.54677100e-03 1.14944200e-01
       21 -1    0    0  503  502 +0.0000000000e+00 +0.0000000000e+00 +1.2213933121e+03 1.2213933121e+03 0.0000000000e+00 0.0000e+00 1.0000e+00
       21 -1    0    0  501  503 -0.0000000000e+00 -0.0000000000e+00 -3.7421725306e+01 3.7421725306e+01 0.0000000000e+00 0.0000e+00 -1.0000e+00
        6  2    1    2  501    0 +1.2584700219e+01 -1.0115329483e+02 +8.1724490580e+02 8.4154891784e+02 1.7298838496e+02 0.0000e+00 0.0000e+00
       24  2    3    3    0    0 -4.0419810681e-01 -1.2924546408e+02 +4.9765973436e+02 5.2043421364e+02 8.0510907077e+01 0.0000e+00 0.0000e+00
       -6  2    1    2    0  502 -1.2584700219e+01 +1.0115329483e+02 +3.6672668096e+02 4.1726611952e+02 1.7097424439e+02 0.0000e+00 0.0000e+00
      -24  2    5    5    0    0 -4.7134195108e+01 +2.8363669984e+01 +1.0379804035e+02 1.4222874546e+02 8.0180126783e+01 0.0000e+00 0.0000e+00
        5  1    3    3  501    0 +1.2988898326e+01 +2.8092169256e+01 +3.1958517144e+02 3.2111470420e+02 4.7000000000e+00 0.0000e+00 -1.0000e+00
      -13  1    4    4    0    0 +3.2793341727e+01 -4.5059983312e+01 +2.6496166256e+02 2.7075909585e+02 0.0000000000e+00 0.0000e+00 1.0000e+00
       14  1    4    4    0    0 -3.3197539833e+01 -8.4185480769e+01 +2.3269807180e+02 2.4967511779e+02 0.0000000000e+00 0.0000e+00 -1.0000e+00
       -5  1    5    5    0  502 +3.4549494889e+01 +7.2789624842e+01 +2.6292864061e+02 2.7503737407e+02 4.7000000000e+00 0.0000e+00 1.0000e+00
       13  1    6    6    0    0 +1.1110242767e+01 +1.5021130066e+01 -3.8803764355e+00 1.9082168746e+01 0.0000000000e+00 0.0000e+00 -1.0000e+00
      -14  1    6    6    0    0 -5.8244437874e+01 +1.3342539918e+01 +1.0767841678e+02 1.2314657671e+02 0.0000000000e+00 0.0000e+00 1.0000e+00
<mgrwt>
<rscale>  2 0.20035224E+03</rscale>
<asrwt>0</asrwt>
<pdfrwt beam="1">  1       21 0.18790663E+00 0.20078681E+03</pdfrwt>
<pdfrwt beam="2">  1       21 0.57571894E-02 0.20078681E+03</pdfrwt>
<totfact> 0.33885865E+04</totfact>
</mgrwt>
</event>
<event>
13      3 +1.4674046e+01 2.70796100e+02 7.54677100e-03 1.10501000e-01
       21 -1    0    0  504  502 +0.0000000000e+00 +0.0000000000e+00 +1.9968461675e+02 1.9968461675e+02 0.0000000000e+00 0.0000e+00 -1.0000e+00
       21 -1    0    0  502  503 -0.0000000000e+00 -0.0000000000e+00 -8.9062946522e+02 8.9062946522e+02 0.0000000000e+00 0.0000e+00 -1.0000e+00
      -24  2    1    2    0    0 +2.0130934929e+02 +5.6483600983e+01 -4.6389697284e+02 5.1511305088e+02 8.0157360784e+01 0.0000e+00 0.0000e+00
        6  2    1    2  501    0 -2.0235121309e+02 +3.2787629405e+01 -2.2238365566e+02 3.4874544477e+02 1.7363137063e+02 0.0000e+00 0.0000e+00
       24  2    4    4    0    0 -1.4333060835e+02 -6.3433243574e+00 -6.5510337505e+01 1.7656533189e+02 7.9371349044e+01 0.0000e+00 0.0000e+00
        5  1    4    4  501    0 -5.9020604737e+01 +3.9130953763e+01 -1.5687331815e+02 1.7218011289e+02 4.7000000000e+00 0.0000e+00 -1.0000e+00
      -13  1    5    5    0    0 -7.3043354981e+01 -3.2570401054e+01 -4.9111702186e+00 8.0126664255e+01 0.0000000000e+00 0.0000e+00 1.0000e+00
       14  1    5    5    0    0 -7.0287253372e+01 +2.6227076696e+01 -6.0599167287e+01 9.6438667631e+01 0.0000000000e+00 0.0000e+00 -1.0000e+00
       -5  1    1    2    0  503 +7.4328924985e+00 -1.4670553861e+01 -8.8957404646e+01 9.0586880302e+01 4.7000000000e+00 0.0000e+00 1.0000e+00
       13  1    3    3    0    0 +1.2767439044e+02 +6.9889865512e+01 -3.4722597005e+02 3.7649862888e+02 0.0000000000e+00 0.0000e+00 -1.0000e+00
      -14  1    3    3    0    0 +7.3634958852e+01 -1.3406264529e+01 -1.1667100279e+02 1.3861442200e+02 0.0000000000e+00 0.0000e+00 1.0000e+00
       21  1    1    2  504  505 +1.3670636377e+01 -1.7358706091e+01 +7.0202871662e+01 7.3597922291e+01 0.0000000000e+00 0.0000e+00 1.0000e+00
       21  1    1    2  505  501 -2.0061665075e+01 -5.7241970436e+01 +1.4090313007e+01 6.2270783724e+01 0.0000000000e+00 0.0000e+00 -1.0000e+00
<mgrwt>
<rscale>  4 0.26358271E+03</rscale>
<asrwt>0</asrwt>
<pdfrwt beam="1">  1       21 0.30720710E-01 0.27079612E+03</pdfrwt>
<pdfrwt beam="2">  1       21 0.13701992E+00 0.27079612E+03</pdfrwt>
<totfact> 0.36308628E+03</totfact>
</mgrwt>
</event>
<event>
13      2 +1.4674046e+01 2.04828900e+02 7.54677100e-03 1.14573600e-01
       21 -1    0    0  501  502 +0.0000000000e+00 +0.0000000000e+00 +1.4502854779e+02 1.4502854779e+02 0.0000000000e+00 0.0000e+00 -1.0000e+00
       21 -1    0    0  502  503 -0.0000000000e+00 -0.0000000000e+00 -4.2613944783e+02 4.2613944783e+02 0.0000000000e+00 0.0000e+00 -1.0000e+00
       -6  2    1    2    0  504 -1.1865918470e+02 +2.1551825518e+00 -2.0732083957e+02 2.9502854475e+02 1.7313366157e+02 0.0000e+00 0.0000e+00
      -24  2    3    3    0    0 -8.5567785084e+01 -3.9269866418e+01 -2.0607602309e+02 2.4178650329e+02 8.4435878788e+01 0.0000e+00 0.0000e+00
        6  2    1    2  501    0 +9.8698800019e+01 -4.4372898104e+01 -2.0308387297e+01 2.0513915630e+02 1.7308736419e+02 0.0000e+00 0.0000e+00
       24  2    5    5    0    0 +1.1301357933e+02 +1.1006738735e+00 +2.3218125777e+01 1.4041353544e+02 8.0022490435e+01 0.0000e+00 0.0000e+00
        5  1    5    5  501    0 -1.4314779312e+01 -4.5473571978e+01 -4.3526513074e+01 6.4725620859e+01 4.7000000000e+00 0.0000e+00 -1.0000e+00
      -13  1    6    6    0    0 -1.0601231753e+01 -2.8624778852e+00 +1.1940550400e+01 1.6222103383e+01 0.0000000000e+00 0.0000e+00 1.0000e+00
       14  1    6    6    0    0 +1.2361481108e+02 +3.9631517587e+00 +1.1277575377e+01 1.2419143206e+02 0.0000000000e+00 0.0000e+00 -1.0000e+00
       -5  1    3    3    0  504 -3.3091399620e+01 +4.1425048970e+01 -1.2448164810e+00 5.3242041462e+01 4.7000000000e+00 0.0000e+00 1.0000e+00
       13  1    4    4    0    0 -7.2176967636e+01 -1.9168354163e+01 -6.6064361875e+01 9.9706771928e+01 0.0000000000e+00 0.0000e+00 -1.0000e+00
      -14  1    4    4    0    0 -1.3390817448e+01 -2.0101512255e+01 -1.4001166122e+02 1.4207973136e+02 0.0000000000e+00 0.0000e+00 1.0000e+00
       21  1    1    2  504  503 +1.9960384685e+01 +4.2217715553e+01 -5.3481673165e+01 7.1000294561e+01 0.0000000000e+00 0.0000e+00 1.0000e+00
<mgrwt>
<rscale>  3 0.20481908E+03</rscale>
<asrwt>0</asrwt>
<pdfrwt beam="1">  1       21 0.22312085E-01 0.20482886E+03</pdfrwt>
<pdfrwt beam="2">  1       21 0.65559914E-01 0.20482886E+03</pdfrwt>
<totfact> 0.39956373E+04</totfact>
</mgrwt>
</event>
<event>
13      2 +1.4674046e+01 4.03025400e+02 7.54677100e-03 1.04273700e-01
       -2 -1    0    0    0  501 -0.0000000000e+00 +0.0000000000e+00 +3.5235856133e+02 3.5235856133e+02 0.0000000000e+00 0.0000e+00 1.0000e+00
        2 -1    0    0  502    0 +0.0000000000e+00 -0.0000000000e+00 -1.3731866485e+03 1.3731866485e+03 0.0000000000e+00 0.0000e+00 -1.0000e+00
        6  2    1    2  502    0 +3.5975483986e+02 -3.7735253084e+01 -1.1644905810e+03 1.2315814838e+03 1.7293682032e+02 0.0000e+00 0.0000e+00
       24  2    3    3    0    0 +1.1512935842e+02 -6.4985197602e+01 -4.7536951163e+02 4.9980684368e+02 7.9704851313e+01 0.0000e+00 0.0000e+00
       -6  2    1    2    0  503 -3.8076643815e+02 +3.0496158511e+01 +8.0342145667e+01 4.2685666043e+02 1.7273868148e+02 0.0000e+00 0.0000e+00
      -24  2    5    5    0    0 -3.6800199350e+02 +2.7022416744e+01 +3.5367343438e+01 3.7974168654e+02 8.2445262375e+01 0.0000e+00 0.0000e+00
        5  1    3    3  502    0 +2.4462548143e+02 +2.7249944517e+01 -6.8912106942e+02 7.3177464015e+02 4.7000000000e+00 0.0000e+00 -1.0000e+00
      -13  1    4    4    0    0 +1.1590541710e+02 -5.0051113187e+01 -3.2444491168e+02 3.4814318945e+02 0.0000000000e+00 0.0000e+00 1.0000e+00
       14  1    4    4    0    0 -7.7605867977e-01 -1.4934084415e+01 -1.5092459994e+02 1.5166365422e+02 0.0000000000e+00 0.0000e+00 -1.0000e+00
       -5  1    5    5    0  503 -1.2764444646e+01 +3.4737417665e+00 +4.4974802229e+01 4.7114973889e+01 4.7000000000e+00 0.0000e+00 1.0000e+00
       13  1    6    6    0    0 -1.6855787504e+02 +5.1757489315e+01 +4.2625168350e+00 1.7637676714e+02 0.0000000000e+00 0.0000e+00 -1.0000e+00
      -14  1    6    6    0    0 -1.9944411847e+02 -2.4735072570e+01 +3.1104826603e+01 2.0336491940e+02 0.0000000000e+00 0.0000e+00 1.0000e+00
       21  1    1    2  503  501 +2.1011598292e+01 +7.2390945735e+00 +6.3320348214e+01 6.7107065582e+01 0.0000000000e+00 0.0000e+00 1.0000e+00
<mgrwt>
<rscale>  3 0.40302538E+03</rscale>
<asrwt>0</asrwt>
<pdfrwt beam="2">  1        2 0.21125949E+00 0.40302538E+03</pdfrwt>
<pdfrwt beam="1">  1       -2 0.54209008E-01 0.40302538E+03</pdfrwt>
<totfact> 0.51359528E+01</totfact>
</mgrwt>
</event>
<event>
13      2 +1.4674046e+01 2.12359000e+02 7.54677100e-03 1.14316200e-01
       21 -1    0    0  504  502 +0.0000000000e+00 +0.0000000000e+00 +1.5053474799e+02 1.5053474799e+02 0.0000000000e+00 0.0000e+00 -1.0000e+00
       21 -1    0    0  501  503 -0.0000000000e+00 -0.0000000000e+00 -1.4357976044e+03 1.4357976044e+03 0.0000000000e+00 0.0000e+00 -1.0000e+00
        6  2    1    2  501    0 +1.0098552010e+02 +1.9246058812e+01 -4.7098623096e+02 5.1866614395e+02 1.9135844136e+02 0.0000e+00 0.0000e+00
       24  2    3    3    0    0 +1.1635970885e+02 +3.8102543052e+01 -2.1854373427e+02 2.6501039927e+02 8.6474055651e+01 0.0000e+00 0.0000e+00
       -6  2    1    2    0  502 -8.8329324849e+01 +9.3721637129e+00 -9.2885885158e+02 9.4888797616e+02 1.7239407776e+02 0.0000e+00 0.0000e+00
      -24  2    5    5    0    0 -7.2138362274e+01 -5.6903730185e+01 -5.0709198193e+02 5.2161286137e+02 8.0596037020e+01 0.0000e+00 0.0000e+00
        5  1    3    3  501    0 -1.5374188745e+01 -1.8856484239e+01 -2.5244249669e+02 2.5365574468e+02 4.7000000000e+00 0.0000e+00 -1.0000e+00
      -13  1    4    4    0    0 +7.6620522426e+01 -1.5166852755e+01 -8.2544539378e+01 1.1364127270e+02 0.0000000000e+00 0.0000e+00 1.0000e+00
       14  1    4    4    0    0 +3.9739186424e+01 +5.3269395807e+01 -1.3599919489e+02 1.5136912657e+02 0.0000000000e+00 0.0000e+00 -1.0000e+00
       -5  1    5    5    0  502 -1.6190962574e+01 +6.6275893898e+01 -4.2176686965e+02 4.2727511479e+02 4.7000000000e+00 0.0000e+00 1.0000e+00
       13  1    6    6    0    0 -3.3409896789e+01 -6.9761091176e+01 -2.6318503743e+02 2.7431586716e+02 0.0000000000e+00 0.0000e+00 -1.0000e+00
      -14  1    6    6    0    0 -3.8728465486e+01 +1.2857360991e+01 -2.4390694450e+02 2.4729699421e+02 0.0000000000e+00 0.0000e+00 1.0000e+00
       21  1    1    2  504  503 -1.2656195256e+01 -2.8618222525e+01 +1.1458222609e+02 1.1877823232e+02 0.0000000000e+00 0.0000e+00 -1.0000e+00
<mgrwt>
<rscale>  3 0.20799749E+03</rscale>
<asrwt>0</asrwt>
<pdfrwt beam="1">  1       21 0.23159192E-01 0.21235900E+03</pdfrwt>
<pdfrwt beam="2">  1       21 0.22089194E+00 0.21235900E+03</pdfrwt>
<totfact> 0.17040527E+03</totfact>
</mgrwt>
</event>
<event>
13      2 +1.4674046e+01 2.33173800e+02 7.54677100e-03 1.12468900e-01
        2 -1    0    0  503    0 -0.0000000000e+00 +0.0000000000e+00 +1.2166608836e+03 1.2166608836e+03 0.0000000000e+00 0.0000e+00 1.0000e+00
       21 -1    0    0  501  503 +0.0000000000e+00 -0.0000000000e+00 -7.9133430833e+01 7.9133430833e+01 0.0000000000e+00 0.0000e+00 1.0000e+00
       -6  2    1    2    0  502 -1.4954418262e+01 -1.5650553823e+02 +6.1642441139e+02 6.5894021731e+02 1.7177175816e+02 0.0000e+00 0.0000e+00
      -24  2    3    3    0    0 -7.3543189195e+01 -1.2612752451e+02 +4.4551632915e+02 4.7567229766e+02 8.0390186610e+01 0.0000e+00 0.0000e+00
        6  2    1    2  501    0 -1.4909775297e+01 +1.5482928465e+02 +1.8047990897e+02 2.9492018800e+02 1.7381171123e+02 0.0000e+00 0.0000e+00
       24  2    5    5    0    0 +3.0626781799e+01 +1.0232893037e+02 +4.2410754783e+01 1.4027528323e+02 8.0431792285e+01 0.0000e+00 0.0000e+00
        5  1    5    5  501    0 -4.5536557096e+01 +5.2500354281e+01 +1.3806915419e+02 1.5464490477e+02 4.7000000000e+00 0.0000e+00 -1.0000e+00
      -13  1    6    6    0    0 +7.7001153264e+00 -1.3549217210e+01 +4.7202534231e+00 1.6283545542e+01 0.0000000000e+00 0.0000e+00 1.0000e+00
       14  1    6    6    0    0 +2.2926666472e+01 +1.1587814758e+02 +3.7690501360e+01 1.2399173769e+02 0.0000000000e+00 0.0000e+00 -1.0000e+00
       -5  1    3    3    0  502 +5.8588770934e+01 -3.0378013722e+01 +1.7090808224e+02 1.8326791965e+02 4.7000000000e+00 0.0000e+00 1.0000e+00
       13  1    4    4    0    0 -4.9291094663e+01 -1.2657441978e+02 +3.1683336321e+02 3.4472318721e+02 0.0000000000e+00 0.0000e+00 -1.0000e+00
      -14  1    4    4    0    0 -2.4252094533e+01 +4.4689526844e-01 +1.2868296594e+02 1.3094911045e+02 0.0000000000e+00 0.0000e+00 1.0000e+00
        2  1    1    2  502    0 +2.9864193559e+01 +1.6762535766e+00 +3.4062313240e+02 3.4193390912e+02 0.0000000000e+00 0.0000e+00 1.0000e+00
<mgrwt>
<rscale>  3 0.23279371E+03</rscale>
<asrwt>0</asrwt>
<pdfrwt beam="2">  1       21 0.12174375E-01 0.23317380E+03</pdfrwt>
<pdfrwt beam="1">  1        2 0.18717858E+00 0.23317380E+03</pdfrwt>
<totfact> 0.14130887E+04</totfact>
</mgrwt>
</event>
<event>
12      1 +1.4674046e+01 2.49570100e+02 7.54677100e-03 1.11573800e-01
       21 -1    0    0  503  502 +0.0000000000e+00 +0.0000000000e+00 +1.1798796122e+03 1.1798796122e+03 0.0000000000e+00 0.0000e+00 1.0000e+00
       21 -1    0    0  501  503 -0.0000000000e+00 -0.0000000000e+00 -1.0423341210e+02 1.0423341210e+02 0.0000000000e+00 0.0000e+00 1.0000e+00
        6  2    1    2  501    0 +1.1888654406e+02 -1.0614562410e+02 +6.7827049478e+01 2.4585262655e+02 1.7447665021e+02 0.0000e+00 0.0000e+00
       24  2    3    3    0    0 +1.3754624980e+02 -6.4093194262e+01 +9.4328659987e+01 1.9255143676e+02 7.1772218303e+01 0.0000e+00 0.0000e+00
       -6  2    1    2    0  502 -1.1888654406e+02 +1.0614562410e+02 +1.0078191506e+03 1.0382603977e+03 1.9205288150e+02 0.0000e+00 0.0000e+00
      -24  2    5    5    0    0 -6.8164324238e+00 -1.7621320083e+01 +3.9769489535e+02 4.0568497674e+02 7.7859462429e+01 0.0000e+00 0.0000e+00
        5  1    3    3  501    0 -1.8659705742e+01 -4.2052429838e+01 -2.6501610509e+01 5.3301189792e+01 4.7000000000e+00 0.0000e+00 -1.0000e+00
      -13  1    4    4    0    0 +8.6590554206e+01 -6.2330050044e+01 +3.0710094425e+01 1.1102283151e+02 0.0000000000e+00 0.0000e+00 1.0000e+00
       14  1    4    4    0    0 +5.0955695592e+01 -1.7631442186e+00 +6.3618565562e+01 8.1528605256e+01 0.0000000000e+00 0.0000e+00 -1.0000e+00
       -5  1    5    5    0  502 -1.1207011163e+02 +1.2376694418e+02 +6.1012425526e+02 6.3257542100e+02 4.7000000000e+00 0.0000e+00 1.0000e+00
       13  1    6    6    0    0 +1.0638828931e+01 +2.1372835726e+01 +5.0360467795e+01 5.5732930162e+01 0.0000000000e+00 0.0000e+00 -1.0000e+00
      -14  1    6    6    0    0 -1.7455261355e+01 -3.8994155809e+01 +3.4733442756e+02 3.4995204658e+02 0.0000000000e+00 0.0000e+00 1.0000e+00
<mgrwt>
<rscale>  2 0.24618719E+03</rscale>
<asrwt>0</asrwt>
<pdfrwt beam="1">  1       21 0.18151993E+00 0.24957006E+03</pdfrwt>
<pdfrwt beam="2">  1       21 0.16035910E-01 0.24957006E+03</pdfrwt>
<totfact> 0.59014811E+03</totfact>
</mgrwt>
</event>
<event>
12      1 +1.4674046e+01 1.78876200e+02 7.54677100e-03 1.17062500e-01
       21 -1    0    0  503  502 +0.0000000000e+00 +0.0000000000e+00 +5.7822368535e+02 5.7822368535e+02 0.0000000000e+00 0.0000e+00 1.0000e+00
       21 -1    0    0  501  503 -0.0000000000e+00 -0.0000000000e+00 -1.3647593621e+02 1.3647593621e+02 0.0000000000e+00 0.0000e+00 1.0000e+00
        6  2    1    2  501    0 +5.5657283779e+00 +2.8371336741e+01 -5.6527219794e+01 1.8759535575e+02 1.7652416503e+02 0.0000e+00 0.0000e+00
       24  2    3    3    0    0 +4.1139205383e+01 +6.8735683525e+01 -6.9716036672e+01 1.3200050303e+02 7.8401394266e+01 0.0000e+00 0.0000e+00
       -6  2    1    2    0  502 -5.5657283779e+00 -2.8371336741e+01 +4.9827496894e+02 5.2710426581e+02 1.6948466680e+02 0.0000e+00 0.0000e+00
      -24  2    5    5    0    0 +4.4471199413e+01 -3.6379226132e+01 +4.3208668806e+02 4.4361295512e+02 8.2416092338e+01 0.0000e+00 0.0000e+00
        5  1    3    3  501    0 -3.5573477005e+01 -4.0364346784e+01 +1.3188816878e+01 5.5594852714e+01 4.7000000000e+00 0.0000e+00 -1.0000e+00
      -13  1    4    4    0    0 +1.9303616183e+01 +5.4140447147e+01 +2.3929651359e-02 5.7478849916e+01 0.0000000000e+00 0.0000e+00 1.0000e+00
       14  1    4    4    0    0 +2.1835589200e+01 +1.4595236378e+01 -6.9739966323e+01 7.4521653118e+01 0.0000000000e+00 0.0000e+00 -1.0000e+00
       -5  1    5    5    0  502 -5.0036927791e+01 +8.0078893916e+00 +6.6188280876e+01 8.3491310689e+01 4.7000000000e+00 0.0000e+00 1.0000e+00
       13  1    6    6    0    0 -1.4567746254e+01 -1.0769437888e+01 +2.1961322567e+01 2.8469276638e+01 0.0000000000e+00 0.0000e+00 -1.0000e+00
      -14  1    6    6    0    0 +5.9038945668e+01 -2.5609788244e+01 +4.1012536549e+02 4.1514367848e+02 0.0000000000e+00 0.0000e+00 1.0000e+00
<mgrwt>
<rscale>  2 0.17711454E+03</rscale>
<asrwt>0</asrwt>
<pdfrwt beam="1">  1       21 0.88957489E-01 0.17887619E+03</pdfrwt>
<pdfrwt beam="2">  1       21 0.20996298E-01 0.17887619E+03</pdfrwt>
<totfact> 0.22932431E+04</totfact>
</mgrwt>
</event>
<event>
13      2 +1.4674046e+01 1.88914600e+02 7.54677100e-03 1.15998800e-01
       21 -1    0    0  504  502 +0.0000000000e+00 +0.0000000000e+00 +7.5005652347e+02 7.5005652347e+02 0.0000000000e+00 0.0000e+00 1.0000e+00
       21 -1    0    0  501  503 -0.0000000000e+00 -0.0000000000e+00 -9.4484030943e+01 9.4484030943e+01 0.0000000000e+00 0.0000e+00 1.0000e+00
        6  2    1    2  501    0 -7.8672218283e+01 +2.6945401793e+01 +9.4597822208e+01 2.1581655765e+02 1.7525029524e+02 0.0000e+00 0.0000e+00
       24  2    3    3    0    0 -8.7134276179e+01 -4.3843238900e+00 +3.2887921487e+00 1.1879806918e+02 8.0564016198e+01 0.0000e+00 0.0000e+00
       -6  2    1    2    0  502 +4.0319015009e+01 -5.7869900704e+01 +5.4637555317e+02 5.7733891083e+02 1.7268301734e+02 0.0000e+00 0.0000e+00
      -24  2    5    5    0    0 -4.2196663307e+01 -4.8523966822e+01 +3.0497085089e+02 3.2200676649e+02 8.0907379299e+01 0.0000e+00 0.0000e+00
        5  1    3    3  501    0 +8.4620578957e+00 +3.1329725683e+01 +9.1309030060e+01 9.7018488473e+01 4.7000000000e+00 0.0000e+00 -1.0000e+00
      -13  1    4    4    0    0 +3.9512974600e+00 +2.3166084083e+01 +2.5061940847e+00 2.3633899640e+01 0.0000000000e+00 0.0000e+00 1.0000e+00
       14  1    4    4    0    0 -9.1085573639e+01 -2.7550407973e+01 +7.8259806401e-01 9.5164169541e+01 0.0000000000e+00 0.0000e+00 -1.0000e+00
       -5  1    5    5    0  502 +8.2515678317e+01 -9.3459338822e+00 +2.4140470228e+02 2.5533214433e+02 4.7000000000e+00 0.0000e+00 1.0000e+00
       13  1    6    6    0    0 -1.0172293086e+01 -2.4912784242e+01 +1.8193950226e+01 3.2482952300e+01 0.0000000000e+00 0.0000e+00 -1.0000e+00
      -14  1    6    6    0    0 -3.2024370221e+01 -2.3611182579e+01 +2.8677690066e+02 2.8952381419e+02 0.0000000000e+00 0.0000e+00 1.0000e+00
       21  1    1    2  504  503 +3.8353203274e+01 +3.0924498911e+01 +1.4599117147e+01 5.1385085927e+01 0.0000000000e+00 0.0000e+00 1.0000e+00
<mgrwt>
<rscale>  3 0.18831697E+03</rscale>
<asrwt>0</asrwt>
<pdfrwt beam="1">  1       21 0.11539331E+00 0.18891458E+03</pdfrwt>
<pdfrwt beam="2">  1       21 0.14536005E-01 0.18891458E+03</pdfrwt>
<totfact> 0.24203247E+04</totfact>
</mgrwt>
</event>
<event>
12      1 +1.4674046e+01 3.38211700e+02 7.54677100e-03 1.06756000e-01
       -1 -1    0    0    0  501 -0.0000000000e+00 +0.0000000000e+00 +1.2284940051e+03 1.2284940051e+03 0.0000000000e+00 0.0000e+00 -1.0000e+00
        1 -1    0    0  502    0 +0.0000000000e+00 -0.0000000000e+00 -9.4521991665e+01 9.4521991665e+01 0.0000000000e+00 0.0000e+00 1.0000e+00
        6  2    1    2  502    0 +2.6478450827e+02 +1.0953314568e+02 +6.4359449614e+02 7.2591563860e+02 1.7501797927e+02 0.0000e+00 0.0000e+00
       24  2    3    3    0    0 +1.6106816343e+02 +7.9655675400e+01 +5.2900604256e+02 5.6842802920e+02 1.0476187962e+02 0.0000e+00 0.0000e+00
       -6  2    1    2    0  501 -2.6478450827e+02 -1.0953314568e+02 +4.9037751734e+02 5.9710035821e+02 1.8425629554e+02 0.0000e+00 0.0000e+00
      -24  2    5    5    0    0 -2.7153635203e+02 -6.7071851633e+01 +4.6101129121e+02 5.4482212064e+02 7.7904484861e+01 0.0000e+00 0.0000e+00
        5  1    3    3  502    0 +1.0371634485e+02 +2.9877470284e+01 +1.1458845358e+02 1.5748760939e+02 4.7000000000e+00 0.0000e+00 -1.0000e+00
      -13  1    4    4    0    0 -3.3490479576e+00 +2.6556204878e+01 +2.9254465650e+01 3.9651883943e+01 0.0000000000e+00 0.0000e+00 1.0000e+00
       14  1    4    4    0    0 +1.6441721138e+02 +5.3099470522e+01 +4.9975157691e+02 5.2877614526e+02 0.0000000000e+00 0.0000e+00 -1.0000e+00
       -5  1    5    5    0  501 +6.7518437623e+00 -4.2461294051e+01 +2.9366226128e+01 5.2278237572e+01 4.7000000000e+00 0.0000e+00 1.0000e+00
       13  1    6    6    0    0 -7.3430497396e+01 -3.0229498294e+01 +1.9920935703e+02 2.1445332462e+02 0.0000000000e+00 0.0000e+00 -1.0000e+00
      -14  1    6    6    0    0 -1.9810585464e+02 -3.6842353339e+01 +2.6180193418e+02 3.3036879602e+02 0.0000000000e+00 0.0000e+00 1.0000e+00
<mgrwt>
<rscale>  2 0.33821169E+03</rscale>
<asrwt>0</asrwt>
<pdfrwt beam="2">  1        1 0.14541846E-01 0.33821169E+03</pdfrwt>
<pdfrwt beam="1">  1       -1 0.18899907E+00 0.33821169E+03</pdfrwt>
<totfact> 0.76495701E+01</totfact>
</mgrwt>
</event>
<event>
13      2 +1.4674046e+01 2.34965900e+02 7.54677100e-03 1.12321500e-01
       21 -1    0    0  504  502 +0.0000000000e+00 +0.0000000000e+00 +1.9794130205e+02 1.9794130205e+02 0.0000000000e+00 0.0000e+00 -1.0000e+00
       21 -1    0    0  501  503 -0.0000000000e+00 -0.0000000000e+00 -8.6115701926e+02 8.6115701926e+02 0.0000000000e+00 0.0000e+00 1.0000e+00
        6  2    1    2  501    0 -3.9861623688e+01 +1.3514212355e+02 +3.1304471141e+01 2.2585083355e+02 1.7371323064e+02 0.0000e+00 0.0000e+00
       24  2    3    3    0    0 -1.8288002546e+01 +1.0099669875e+02 -4.5309493103e+01 1.3911490857e+02 8.2250978265e+01 0.0000e+00 0.0000e+00
       -6  2    1    2    0  502 +5.3066243160e+01 -1.9953263688e+02 -2.0356054928e+02 3.3790733455e+02 1.7353722995e+02 0.0000e+00 0.0000e+00
      -24  2    5    5    0    0 +2.6242385643e+01 -2.3890310750e+01 -9.6851083006e+01 1.3059417469e+02 8.0095545639e+01 0.0000e+00 0.0000e+00
        5  1    3    3  501    0 -2.1573621142e+01 +3.4145424801e+01 +7.6613964244e+01 8.6735924974e+01 4.7000000000e+00 0.0000e+00 -1.0000e+00
      -13  1    4    4    0    0 -5.4976585754e+00 +1.3399791082e+01 -4.8414640469e+01 5.0534701569e+01 0.0000000000e+00 0.0000e+00 1.0000e+00
       14  1    4    4    0    0 -1.2790343970e+01 +8.7596907672e+01 +3.1051473668e+00 8.8580207003e+01 0.0000000000e+00 0.0000e+00 -1.0000e+00
       -5  1    5    5    0  502 +2.6823857517e+01 -1.7564232613e+02 -1.0670946628e+02 2.0731315986e+02 4.7000000000e+00 0.0000e+00 1.0000e+00
       13  1    6    6    0    0 -1.9319580679e+01 +7.8268047860e-01 +1.5373555574e+00 1.9396449378e+01 0.0000000000e+00 0.0000e+00 -1.0000e+00
      -14  1    6    6    0    0 +4.5561966323e+01 -2.4672991228e+01 -9.8388438563e+01 1.1119772531e+02 0.0000000000e+00 0.0000e+00 1.0000e+00
       21  1    1    2  504  503 -1.3204619473e+01 +6.4390513325e+01 -4.9095963907e+02 4.9534015321e+02 0.0000000000e+00 0.0000e+00 1.0000e+00
<mgrwt>
<rscale>  3 0.23493338E+03</rscale>
<asrwt>0</asrwt>
<pdfrwt beam="1">  1       21 0.30452509E-01 0.23496591E+03</pdfrwt>
<pdfrwt beam="2">  1       21 0.13248569E+00 0.23496591E+03</pdfrwt>
<totfact> 0.41247246E+03</totfact>
</mgrwt>
</event>
<event>
14      3 +1.4674046e+01 2.01269600e+02 7.54677100e-03 1.14873500e-01
       21 -1    0    0  501  502 +0.0000000000e+00 +0.0000000000e+00 +1.0033333901e+02 1.0033333901e+02 0.0000000000e+00 0.0000e+00 1.0000e+00
       21 -1    0    0  504  503 -0.0000000000e+00 -0.0000000000e+00 -1.2052954091e+03 1.2052954091e+03 0.0000000000e+00 0.0000e+00 1.0000e+00
       -6  2    1    2    0  503 -4.9236670875e+01 -8.6015809282e+01 -9.7775336083e+02 9.9800049329e+02 1.7372501488e+02 0.0000e+00 0.0000e+00
      -24  2    3    3    0    0 -5.4216668281e+01 -1.0410128333e+02 -4.9718749530e+02 5.1704568684e+02 7.9776641185e+01 0.0000e+00 0.0000e+00
        6  2    1    2  501    0 +8.7149830390e+01 +8.1051233618e+01 -8.7487576251e+01 2.2829775074e+02 1.7407294903e+02 0.0000e+00 0.0000e+00
       24  2    5    5    0    0 +1.0200565339e+02 +3.3995999908e+01 -7.1355780510e+00 1.3388681858e+02 7.9459941986e+01 0.0000e+00 0.0000e+00
        5  1    5    5  501    0 -1.4855823003e+01 +4.7055233710e+01 -8.0351998200e+01 9.4410932160e+01 4.7000000000e+00 0.0000e+00 -1.0000e+00
      -13  1    6    6    0    0 +1.6059158516e+01 +1.4280230841e+01 +3.1077482947e+01 3.7784011320e+01 0.0000000000e+00 0.0000e+00 1.0000e+00
       14  1    6    6    0    0 +8.5946494878e+01 +1.9715769068e+01 -3.8213060998e+01 9.6102807256e+01 0.0000000000e+00 0.0000e+00 -1.0000e+00
       -5  1    3    3    0  503 +4.9799974057e+00 +1.8085474053e+01 -4.8056586553e+02 4.8095480646e+02 4.7000000000e+00 0.0000e+00 1.0000e+00
       13  1    4    4    0    0 -3.3146428582e+01 -1.1723098474e+01 -5.8581898081e+01 6.8322438103e+01 0.0000000000e+00 0.0000e+00 -1.0000e+00
      -14  1    4    4    0    0 -2.1070239699e+01 -9.2378184860e+01 -4.3860559722e+02 4.4872324873e+02 0.0000000000e+00 0.0000e+00 1.0000e+00
       21  1    1    2  504  505 -1.1363552935e+00 +2.3148464179e+01 -1.4451640734e+00 2.3221352166e+01 0.0000000000e+00 0.0000e+00 1.0000e+00
       21  1    1    2  505  502 -3.6776804222e+01 -1.8183888516e+01 -3.8275968900e+01 5.6109151888e+01 0.0000000000e+00 0.0000e+00 1.0000e+00
<mgrwt>
<rscale>  4 0.20119433E+03</rscale>
<asrwt>0</asrwt>
<pdfrwt beam="1">  1       21 0.15435898E-01 0.20126958E+03</pdfrwt>
<pdfrwt beam="2">  1       21 0.18543007E+00 0.20126958E+03</pdfrwt>
<totfact> 0.61805732E+03</totfact>
</mgrwt>
</event>
<event>
14      3 +1.4674046e+01 1.89362800e+02 7.54677100e-03 1.15935900e-01
        1 -1    0    0  504    0 -0.0000000000e+00 +0.0000000000e+00 +2.0829113398e+03 2.0829113398e+03 0.0000000000e+00 0.0000e+00 -1.0000e+00
       21 -1    0    0  502  503 +0.0000000000e+00 -0.0000000000e+00 -2.8598161930e+02 2.8598161930e+02 0.0000000000e+00 0.0000e+00 1.0000e+00
        6  2    1    2  504    0 -4.0236619507e+01 +1.2260858933e+02 +8.7260167783e+02 8.9880716026e+02 1.7253629024e+02 0.0000e+00 0.0000e+00
       24  2    3    3    0    0 -4.5666674467e-01 +3.9516531929e+01 +1.6673211729e+02 1.8624662592e+02 7.2982476595e+01 0.0000e+00 0.0000e+00
       -6  2    1    2    0  503 +4.9369575148e+01 -5.3670181308e+01 -2.3908214704e+02 3.0459912604e+02 1.7407616504e+02 0.0000e+00 0.0000e+00
      -24  2    5    5    0    0 +2.6507561968e+01 +2.8455732772e+01 -1.8475430896e+02 2.0340158950e+02 7.5668172722e+01 0.0000e+00 0.0000e+00
        5  1    3    3  501    0 -1.8174299730e+01 +6.7936416596e+01 +5.4537931688e+02 5.4991485810e+02 4.7000000000e+00 0.0000e+00 -1.0000e+00
      -13  1    4    4    0    0 +2.4006311620e+01 -4.2089233158e-01 +1.1043775059e+02 1.1301759555e+02 0.0000000000e+00 0.0000e+00 1.0000e+00
       14  1    4    4    0    0 -2.4462978364e+01 +3.9937424261e+01 +5.6294366701e+01 7.3229030373e+01 0.0000000000e+00 0.0000e+00 -1.0000e+00
       -5  1    5    5    0  503 +2.2862013181e+01 -8.2125914080e+01 -5.4327838083e+01 1.0119753654e+02 4.7000000000e+00 0.0000e+00 1.0000e+00
       13  1    6    6    0    0 -2.6525073177e+01 +4.6461211191e+00 -6.0313683802e+01 6.6052300507e+01 0.0000000000e+00 0.0000e+00 -1.0000e+00
      -14  1    6    6    0    0 +5.3032635144e+01 +2.3809611653e+01 -1.2444062516e+02 1.3734928899e+02 0.0000000000e+00 0.0000e+00 1.0000e+00
       21  1    3    3  504  501 -2.1605653032e+01 +1.5155640802e+01 +1.6049024365e+02 1.6264567624e+02 0.0000000000e+00 0.0000e+00 -1.0000e+00
        1  1    1    2  502    0 -9.1329556413e+00 -6.8938408019e+01 +1.1634101897e+03 1.1654866728e+03 0.0000000000e+00 0.0000e+00 -1.0000e+00
<mgrwt>
<rscale>  4 0.18900816E+03</rscale>
<asrwt>0</asrwt>
<pdfrwt beam="2">  1       21 0.43997174E-01 0.18936280E+03</pdfrwt>
<pdfrwt beam="1">  1        1 0.32044789E+00 0.18936280E+03</pdfrwt>
<totfact> 0.17002332E+02</totfact>
</mgrwt>
</event>
<event>
14      3 +1.4674046e+01 2.06070600e+02 7.54677100e-03 1.14491200e-01
       21 -1    0    0  505  502 +0.0000000000e+00 +0.0000000000e+00 +4.9000117346e+02 4.9000117346e+02 0.0000000000e+00 0.0000e+00 -1.0000e+00
       21 -1    0    0  502  503 -0.0000000000e+00 -0.0000000000e+00 -2.0783292574e+02 2.0783292574e+02 0.0000000000e+00 0.0000e+00 1.0000e+00
       -6  2    1    2    0  503 +8.8580967352e+01 -3.8261195235e+01 -2.5280636529e+01 1.9989489600e+02 1.7322918930e+02 0.0000e+00 0.0000e+00
      -24  2    3    3    0    0 +4.9598160077e+01 +1.0175165875e+01 +4.9618984604e+01 1.0243832318e+02 7.3946297669e+01 0.0000e+00 0.0000e+00
        6  2    1    2  501    0 -1.0589600718e+02 +1.0947775835e+02 +1.2745721856e+02 2.6278686341e+02 1.7208209991e+02 0.0000e+00 0.0000e+00
       24  2    5    5    0    0 -5.4354815826e+01 -1.4704260167e+00 +2.3540392938e+01 1.0220420349e+02 8.3276292876e+01 0.0000e+00 0.0000e+00
        5  1    5    5  501    0 -5.1541191351e+01 +1.1094818437e+02 +1.0391682562e+02 1.6058265992e+02 4.7000000000e+00 0.0000e+00 -1.0000e+00
      -13  1    6    6    0    0 -2.3234260056e+01 +2.4841503105e+01 -2.2450855805e+01 4.0755024761e+01 0.0000000000e+00 0.0000e+00 1.0000e+00
       14  1    6    6    0    0 -3.1120555771e+01 -2.6311929122e+01 +4.5991248743e+01 6.1449178730e+01 0.0000000000e+00 0.0000e+00 -1.0000e+00
       -5  1    3    3    0  503 +3.8982807276e+01 -4.8436361110e+01 -7.4899621133e+01 9.7456572824e+01 4.7000000000e+00 0.0000e+00 1.0000e+00
       13  1    4    4    0    0 -1.0526281334e+01 +2.1251136410e+01 +2.9978851924e+01 3.8224925901e+01 0.0000000000e+00 0.0000e+00 -1.0000e+00
      -14  1    4    4    0    0 +6.0124441411e+01 -1.1075970535e+01 +1.9640132680e+01 6.4213397278e+01 0.0000000000e+00 0.0000e+00 1.0000e+00
       21  1    1    2  504  501 +4.4849026404e+01 +2.4819180919e+01 +5.5931607806e+01 7.5866802111e+01 0.0000000000e+00 0.0000e+00 1.0000e+00
       21  1    1    2  505  504 -2.7533986578e+01 -9.6035744034e+01 +1.2406005789e+02 1.5928553767e+02 0.0000000000e+00 0.0000e+00 -1.0000e+00
<mgrwt>
<rscale>  4 0.20582936E+03</rscale>
<asrwt>0</asrwt>
<pdfrwt beam="1">  1       21 0.75384796E-01 0.20607062E+03</pdfrwt>
<pdfrwt beam="2">  1       21 0.31974296E-01 0.20607062E+03</pdfrwt>
<totfact> 0.14659694E+04</totfact>
</mgrwt>
</event>
<event>
13      2 +1.4674046e+01 2.32553200e+02 7.54677100e-03 1.12485500e-01
       -1 -1    0    0    0  501 -0.0000000000e+00 +0.0000000000e+00 +9.3800361258e+02 9.3800361258e+02 0.0000000000e+00 0.0000e+00 1.0000e+00
        1 -1    0    0  503    0 +0.0000000000e+00 -0.0000000000e+00 -6.2022835773e+01 6.2022835773e+01 0.0000000000e+00 0.0000e+00 -1.0000e+00
       -6  2    1    2    0  501 -1.3278348654e+02 +8.7258917518e+01 +3.1060018511e+02 3.8979123781e+02 1.7383659309e+02 0.0000e+00 0.0000e+00
      -24  2    3    3    0    0 -5.1226316790e+01 +1.0571654536e+02 +1.4367997541e+02 2.0303818597e+02 8.2343464430e+01 0.0000e+00 0.0000e+00
        6  2    1    2  503    0 +1.3278348654e+02 -8.7258917518e+01 +5.6538059170e+02 6.1023521055e+02 1.6578970335e+02 0.0000e+00 0.0000e+00
       24  2    5    5    0    0 +5.3929977063e+01 -1.8214977708e+01 +1.5489488172e+02 1.8340150123e+02 8.0021612264e+01 0.0000e+00 0.0000e+00
        5  1    5    5  502    0 +7.9131357011e+01 -4.3954210738e+01 +3.4491832005e+02 3.5662933392e+02 4.7000000000e+00 0.0000e+00 -1.0000e+00
      -13  1    6    6    0    0 +2.0601425317e+00 +2.5364221175e+01 +1.9699175047e+01 3.2181444974e+01 0.0000000000e+00 0.0000e+00 1.0000e+00
       14  1    6    6    0    0 +5.1869834531e+01 -4.3579198883e+01 +1.3519570667e+02 1.5122005625e+02 0.0000000000e+00 0.0000e+00 -1.0000e+00
       -5  1    3    3    0  501 -8.1557169754e+01 -1.8457627840e+01 +1.6692020970e+02 1.8675305184e+02 4.7000000000e+00 0.0000e+00 1.0000e+00
       13  1    4    4    0    0 +1.6742514757e+01 -7.3044044056e-01 +1.2221022119e+01 2.0741232491e+01 0.0000000000e+00 0.0000e+00 -1.0000e+00
      -14  1    4    4    0    0 -6.7968831547e+01 +1.0644698580e+02 +1.3145895329e+02 1.8229695348e+02 0.0000000000e+00 0.0000e+00 1.0000e+00
       21  1    5    5  503  502 -2.7784752994e-01 -2.5089729072e+01 +6.5567389928e+01 7.0204375405e+01 0.0000000000e+00 0.0000e+00 -1.0000e+00
<mgrwt>
<rscale>  3 0.23255323E+03</rscale>
<asrwt>0</asrwt>
<pdfrwt beam="2">  1        1 0.95419754E-02 0.23255323E+03</pdfrwt>
<pdfrwt beam="1">  1       -1 0.14430824E+00 0.23255323E+03</pdfrwt>
<totfact> 0.28677769E+02</totfact>
</mgrwt>
</event>
<event>
14      3 +1.4674046e+01 2.74166800e+02 7.54677100e-03 1.09899500e-01
       21 -1    0    0  501  502 +0.0000000000e+00 +0.0000000000e+00 +7.1096809461e+02 7.1096809461e+02 0.0000000000e+00 0.0000e+00 -1.0000e+00
       21 -1    0    0  505  503 -0.0000000000e+00 -0.0000000000e+00 -8.7674248711e+02 8.7674248711e+02 0.0000000000e+00 0.0000e+00 -1.0000e+00
       -6  2    1    2    0  504 +7.6144930034e+01 -1.9164752366e+02 -3.2373199853e+02 4.2103494185e+02 1.7303523251e+02 0.0000e+00 0.0000e+00
      -24  2    3    3    0    0 +5.5443848395e+01 -2.1373552442e+02 -2.5993415815e+02 3.5026299122e+02 7.9759022812e+01 0.0000e+00 0.0000e+00
        6  2    1    2  501    0 -4.1726558473e+01 +1.9217692702e+02 +9.3195413541e+01 2.7856403438e+02 1.7389496596e+02 0.0000e+00 0.0000e+00
       24  2    5    5    0    0 -1.2708744179e+01 +9.7513689727e+01 -1.5692371326e+01 1.3131661765e+02 8.5600068289e+01 0.0000e+00 0.0000e+00
        5  1    5    5  501    0 -2.9017814293e+01 +9.4663237292e+01 +1.0888778487e+02 1.4724741673e+02 4.7000000000e+00 0.0000e+00 -1.0000e+00
      -13  1    6    6    0    0 +3.4941231899e+01 +3.1682783022e+01 -1.6723650081e+01 5.0043669916e+01 0.0000000000e+00 0.0000e+00 1.0000e+00
       14  1    6    6    0    0 -4.7649976078e+01 +6.5830906704e+01 +1.0312787557e+00 8.1272947736e+01 0.0000000000e+00 0.0000e+00 -1.0000e+00
       -5  1    3    3    0  504 +2.0701081639e+01 +2.2088000763e+01 -6.3797840381e+01 7.0771950631e+01 4.7000000000e+00 0.0000e+00 1.0000e+00
       13  1    4    4    0    0 +2.5535520086e+01 -1.9909437493e+01 -1.2925428321e+01 3.4864239338e+01 0.0000000000e+00 0.0000e+00 -1.0000e+00
      -14  1    4    4    0    0 +2.9908328309e+01 -1.9382608693e+02 -2.4700872983e+02 3.1539875188e+02 0.0000000000e+00 0.0000e+00 1.0000e+00
       21  1    1    2  504  503 -1.3847448956e+01 -1.9715315658e+01 -4.1090635452e+02 4.1161204756e+02 0.0000000000e+00 0.0000e+00 -1.0000e+00
       21  1    1    2  505  502 -2.0570922605e+01 +1.9185912299e+01 +4.7566854701e+02 4.7649955793e+02 0.0000000000e+00 0.0000e+00 -1.0000e+00
<mgrwt>
<rscale>  4 0.27403054E+03</rscale>
<asrwt>0</asrwt>
<pdfrwt beam="1">  1       21 0.10937971E+00 0.27416677E+03</pdfrwt>
<pdfrwt beam="2">  1       21 0.13488346E+00 0.27416677E+03</pdfrwt>
<totfact> 0.23947156E+02</totfact>
</mgrwt>
</event>
<event>
14      3 +1.4674046e+01 2.10586600e+02 7.54677100e-03 1.14111800e-01
       21 -1    0    0  502  503 +0.0000000000e+00 +0.0000000000e+00 +1.3030920670e+02 1.3030920670e+02 0.0000000000e+00 0.0000e+00 1.0000e+00
       21 -1    0    0  501  504 -0.0000000000e+00 -0.0000000000e+00 -1.9282103268e+03 1.9282103268e+03 0.0000000000e+00 0.0000e+00 1.0000e+00
        6  2    1    2  501    0 -4.3067580066e+01 +1.8611872200e+02 -9.6203346940e+02 9.9605009057e+02 1.7352922394e+02 0.0000e+00 0.0000e+00
       24  2    3    3    0    0 -6.3563511920e+01 +7.6005008503e+01 -3.0101342496e+02 3.2559151448e+02 7.4723964862e+01 0.0000e+00 0.0000e+00
       -6  2    1    2    0  503 +9.8268904267e+01 -6.2570646842e+01 -4.1635152256e+00 2.0912761191e+02 1.7362361537e+02 0.0000e+00 0.0000e+00
      -24  2    5    5    0    0 -1.6242748437e+01 -2.6196934633e+01 +1.6626476402e+01 8.7101879806e+01 7.9750808694e+01 0.0000e+00 0.0000e+00
        5  1    3    3  501    0 +2.0495931853e+01 +1.1011371350e+02 -6.6102004443e+02 6.7045857610e+02 4.7000000000e+00 0.0000e+00 -1.0000e+00
      -13  1    4    4    0    0 -3.2856077055e+01 -3.8689608602e+00 -1.3284972349e+02 1.3690704762e+02 0.0000000000e+00 0.0000e+00 1.0000e+00
       14  1    4    4    0    0 -3.0707434865e+01 +7.9873969363e+01 -1.6816370148e+02 1.8868446685e+02 0.0000000000e+00 0.0000e+00 -1.0000e+00
       -5  1    5    5    0  503 +1.1451165270e+02 -3.6373712209e+01 -2.0789991627e+01 1.2202573211e+02 4.7000000000e+00 0.0000e+00 1.0000e+00
       13  1    6    6    0    0 +9.9425266305e-01 -2.5440838046e+01 -2.8840830661e+01 3.8471005863e+01 0.0000000000e+00 0.0000e+00 -1.0000e+00
      -14  1    6    6    0    0 -1.7237001100e+01 -7.5609658678e-01 +4.5467307063e+01 4.8630873944e+01 0.0000000000e+00 0.0000e+00 1.0000e+00
        1  1    1    2  502    0 -9.7173559254e+01 -1.0158971492e+02 -6.8137175014e+02 6.9572310058e+02 0.0000000000e+00 0.0000e+00 1.0000e+00
       -1  1    1    2    0  504 +4.1972235054e+01 -2.1958360238e+01 -1.5033238532e+02 1.5761873041e+02 0.0000000000e+00 0.0000e+00 -1.0000e+00
<mgrwt>
<rscale>  4 0.21056715E+03</rscale>
<asrwt>0</asrwt>
<pdfrwt beam="1">  1       21 0.20047572E-01 0.21058661E+03</pdfrwt>
<pdfrwt beam="2">  1       21 0.29664771E+00 0.21058661E+03</pdfrwt>
<totfact> 0.80093963E+02</totfact>
</mgrwt>
</event>
<event>
13      2 +1.4674046e+01 2.16654300e+02 7.54677100e-03 1.13687500e-01
       21 -1    0    0  503  502 +0.0000000000e+00 +0.0000000000e+00 +3.3500159941e+02 3.3500159941e+02 0.0000000000e+00 0.0000e+00 1.0000e+00
       21 -1    0    0  501  503 -0.0000000000e+00 -0.0000000000e+00 -2.7079479942e+02 2.7079479942e+02 0.0000000000e+00 0.0000e+00 1.0000e+00
        6  2    1    2  501    0 +1.1916648785e+02 -5.5410592131e+01 +2.2075168994e+02 3.1115765820e+02 1.7554712785e+02 0.0000e+00 0.0000e+00
       24  2    3    3    0    0 +4.4482839118e+01 +3.7027588499e+01 +7.6061465753e+01 1.2386159417e+02 7.8781867528e+01 0.0000e+00 0.0000e+00
       -6  2    1    2    0  504 -8.2648329857e+01 +7.5235991404e+01 -1.4493273293e+02 2.5149404792e+02 1.7248929890e+02 0.0000e+00 0.0000e+00
      -24  2    5    5    0    0 -6.4207271863e+01 +2.4337750841e+01 -1.6422806982e+02 1.9383033716e+02 7.6710108913e+01 0.0000e+00 0.0000e+00
        5  1    3    3  501    0 +7.4683648728e+01 -9.2438180630e+01 +1.4469022419e+02 1.8729606403e+02 4.7000000000e+00 0.0000e+00 -1.0000e+00
      -13  1    4    4    0    0 +5.2849687481e+01 -9.7799440639e-02 +2.0869844172e+01 5.6821205789e+01 0.0000000000e+00 0.0000e+00 1.0000e+00
       14  1    4    4    0    0 -8.3668483632e+00 +3.7125387939e+01 +5.5191621581e+01 6.7040388378e+01 0.0000000000e+00 0.0000e+00 -1.0000e+00
       -5  1    5    5    0  504 -1.8441057994e+01 +5.0898240564e+01 +1.9295336897e+01 5.7663710758e+01 4.7000000000e+00 0.0000e+00 1.0000e+00
       13  1    6    6    0    0 -3.7769299988e+01 -2.3751120992e+01 -4.9417429793e+01 6.6578661276e+01 0.0000000000e+00 0.0000e+00 -1.0000e+00
      -14  1    6    6    0    0 -2.6437971875e+01 +4.8088871833e+01 -1.1481064003e+02 1.2725167588e+02 0.0000000000e+00 0.0000e+00 1.0000e+00
       21  1    1    2  504  502 -3.6518157988e+01 -1.9825399273e+01 -1.1612157028e+01 4.3144692722e+01 0.0000000000e+00 0.0000e+00 1.0000e+00
<mgrwt>
<rscale>  3 0.21603406E+03</rscale>
<asrwt>0</asrwt>
<pdfrwt beam="1">  1       21 0.51538708E-01 0.21665426E+03</pdfrwt>
<pdfrwt beam="2">  1       21 0.41660738E-01 0.21665426E+03</pdfrwt>
<totfact> 0.19560290E+04</totfact>
</mgrwt>
</event>
<event>
14      3 +1.4674046e+01 2.40367900e+02 7.54677100e-03 1.11996100e-01
       -2 -1    0    0    0  501 -0.0000000000e+00 +0.0000000000e+00 +3.8718746258e+02 3.8718746258e+02 0.0000000000e+00 0.0000e+00 1.0000e+00
       21 -1    0    0  502  503 +0.0000000000e+00 -0.0000000000e+00 -8.1922538370e+02 8.1922538370e+02 0.0000000000e+00 0.0000e+00 1.0000e+00
       -6  2    1    2    0  504 -4.4592690734e+01 -2.0110769387e+02 -1.2239715174e+02 2.9364831752e+02 1.6975116797e+02 0.0000e+00 0.0000e+00
      -24  2    3    3    0    0 +2.9854207745e+01 -1.3305261643e+02 -4.2080369477e+01 1.6462618852e+02 8.2077719221e+01 0.0000e+00 0.0000e+00
        6  2    1    2  502    0 +2.0873307357e+01 +1.5513657983e+02 -5.8599219607e+02 6.3078214162e+02 1.7319411935e+02 0.0000e+00 0.0000e+00
       24  2    5    5    0    0 +8.0561501855e+01 +1.0610003346e+02 -3.6711195184e+02 3.9862289723e+02 7.9885269814e+01 0.0000e+00 0.0000e+00
        5  1    5    5  502    0 -5.9688194497e+01 +4.9036546368e+01 -2.1888024422e+02 2.3215924438e+02 4.7000000000e+00 0.0000e+00 -1.0000e+00
      -13  1    6    6    0    0 +7.8271844600e+01 +6.0935836497e+01 -3.1168138618e+02 3.2708553058e+02 0.0000000000e+00 0.0000e+00 1.0000e+00
       14  1    6    6    0    0 +2.2896572544e+00 +4.5164196964e+01 -5.5430565666e+01 7.1537366654e+01 0.0000000000e+00 0.0000e+00 -1.0000e+00
       -5  1    3    3    0  504 -7.4446898480e+01 -6.8055077440e+01 -8.0316782267e+01 1.2902212900e+02 4.7000000000e+00 0.0000e+00 1.0000e+00
       13  1    4    4    0    0 +2.3794285850e+01 -5.8613579617e+00 +1.0758123905e+01 2.6763048896e+01 0.0000000000e+00 0.0000e+00 -1.0000e+00
      -14  1    4    4    0    0 +6.0599218949e+00 -1.2719125847e+02 -5.2838493382e+01 1.3786313962e+02 0.0000000000e+00 0.0000e+00 1.0000e+00
       21  1    1    2  504  501 +1.6107226780e+00 +2.4417394818e+01 +1.4503039630e+02 1.4708031632e+02 0.0000000000e+00 0.0000e+00 -1.0000e+00
       -2  1    1    2    0  503 +2.2108660699e+01 +2.1553719223e+01 +1.3132103039e+02 1.3490207082e+02 0.0000000000e+00 0.0000e+00 1.0000e+00
<mgrwt>
<rscale>  4 0.23974828E+03</rscale>
<asrwt>0</asrwt>
<pdfrwt beam="2">  1       21 0.12603467E+00 0.24036787E+03</pdfrwt>
<pdfrwt beam="1">  1       -2 0.59567302E-01 0.24036787E+03</pdfrwt>
<totfact> 0.99096332E+01</totfact>
</mgrwt>
</event>
<event>
13      3 +1.4674046e+01 3.69377200e+02 7.54677100e-03 1.07750000e-01
        2 -1    0    0  501    0 +0.0000000000e+00 +0.0000000000e+00 +1.5114689887e+03 1.5114689887e+03 0.0000000000e+00 0.0000e+00 1.0000e+00
        2 -1    0    0  503    0 -0.0000000000e+00 -0.0000000000e+00 -1.4245911546e+03 1.4245911546e+03 0.0000000000e+00 0.0000e+00 1.0000e+00
       -6  2    1    2    0  502 -8.2303591959e+01 -3.2716700951e+01 -1.2949169558e+02 2.3448988829e+02 1.7427892792e+02 0.0000e+00 0.0000e+00
      -24  2    3    3    0    0 -7.8318081774e+01 +2.3613311922e+01 -1.3522820965e+02 1.7753418414e+02 8.0872785420e+01 0.0000e+00 0.0000e+00
       24  2    1    2    0    0 +5.0387388852e+01 -4.4985740950e+01 +4.1927897911e+02 4.3169963253e+02 7.7505513092e+01 0.0000e+00 0.0000e+00
        5  1    1    2  501    0 -1.1247049590e-01 +5.8084521034e+01 -5.5756974026e+01 8.0652057543e+01 4.7000000000e+00 0.0000e+00 -1.0000e+00
      -13  1    5    5    0    0 -8.7524514842e-01 +1.7432205427e+01 +3.6071120689e+01 4.0072104860e+01 0.0000000000e+00 0.0000e+00 1.0000e+00
       14  1    5    5    0    0 +5.1262634000e+01 -6.2417946377e+01 +3.8320785842e+02 3.9162752767e+02 0.0000000000e+00 0.0000e+00 -1.0000e+00
       -5  1    3    3    0  502 -3.9855101849e+00 -5.6330012873e+01 +5.7365140674e+00 5.6955704151e+01 4.7000000000e+00 0.0000e+00 1.0000e+00
       13  1    4    4    0    0 -7.6477825879e+01 +1.9772064528e+01 -5.2840313734e+01 9.5036262249e+01 0.0000000000e+00 0.0000e+00 -1.0000e+00
      -14  1    4    4    0    0 -1.8402558957e+00 +3.8412473941e+00 -8.2387895917e+01 8.2497921894e+01 0.0000000000e+00 0.0000e+00 1.0000e+00
        2  1    1    2  502    0 -9.2460344510e+00 -1.7973047981e+01 -1.1673348517e+03 1.1675098182e+03 0.0000000000e+00 0.0000e+00 1.0000e+00
        2  1    1    2  503    0 +4.1274708055e+01 +3.7590968847e+01 +1.0201823762e+03 1.0217087468e+03 0.0000000000e+00 0.0000e+00 1.0000e+00
<mgrwt>
<rscale>  4 0.31601092E+03</rscale>
<asrwt>0</asrwt>
<pdfrwt beam="1">  1        2 0.23253369E+00 0.36937720E+03</pdfrwt>
<pdfrwt beam="2">  1        2 0.21916787E+00 0.36937720E+03</pdfrwt>
<totfact> 0.30316677E+01</totfact>
</mgrwt>
</event>
<event>
13      2 +1.4674046e+01 2.07067300e+02 7.54677100e-03 1.14489600e-01
       21 -1    0    0  501  502 +0.0000000000e+00 +0.0000000000e+00 +8.9045080670e+01 8.9045080670e+01 0.0000000000e+00 0.0000e+00 -1.0000e+00
       21 -1    0    0  504  503 -0.0000000000e+00 -0.0000000000e+00 -8.9911727681e+02 8.9911727681e+02 0.0000000000e+00 0.0000e+00 -1.0000e+00
       -6  2    1    2    0  503 -1.7479076324e+01 -9.4360579962e+01 -4.3266306907e+02 4.7582051323e+02 1.7320043970e+02 0.0000e+00 0.0000e+00
      -24  2    3    3    0    0 +3.7065557567e+01 -6.4622028373e+01 -3.7659879268e+02 3.9200648323e+02 7.9325721815e+01 0.0000e+00 0.0000e+00
        6  2    1    2  501    0 -3.8064047726e+01 +1.3950529192e+02 -3.8112790437e+02 4.4066958356e+02 1.6739356075e+02 0.0000e+00 0.0000e+00
       24  2    5    5    0    0 -7.0227833850e+01 +8.7606855806e+01 -3.4021649808e+02 3.6702319889e+02 7.9698513983e+01 0.0000e+00 0.0000e+00
        5  1    5    5  501    0 +3.2163786124e+01 +5.1898436116e+01 -4.0911406295e+01 7.3646384664e+01 4.7000000000e+00 0.0000e+00 -1.0000e+00
      -13  1    6    6    0    0 -7.0317028467e+01 +7.2442486074e+01 -1.8236688991e+02 2.0844682971e+02 0.0000000000e+00 0.0000e+00 1.0000e+00
       14  1    6    6    0    0 +8.9194616848e-02 +1.5164369732e+01 -1.5784960816e+02 1.5857636918e+02 0.0000000000e+00 0.0000e+00 -1.0000e+00
       -5  1    3    3    0  503 -5.4544633891e+01 -2.9738551589e+01 -5.6064276397e+01 8.3814030000e+01 4.7000000000e+00 0.0000e+00 1.0000e+00
       13  1    4    4    0    0 +1.4501116337e+01 -1.0890902382e+01 -9.8134481084e+00 2.0620327192e+01 0.0000000000e+00 0.0000e+00 -1.0000e+00
      -14  1    4    4    0    0 +2.2564441230e+01 -5.3731125992e+01 -3.6678534457e+02 3.7138615604e+02 0.0000000000e+00 0.0000e+00 1.0000e+00
       21  1    1    2  504  502 +5.5543124050e+01 -4.5144711960e+01 +3.7187773087e+00 7.1672260686e+01 0.0000000000e+00 0.0000e+00 -1.0000e+00
<mgrwt>
<rscale>  3 0.20584854E+03</rscale>
<asrwt>0</asrwt>
<pdfrwt beam="1">  1       21 0.13699243E-01 0.20706728E+03</pdfrwt>
<pdfrwt beam="2">  1       21 0.13832573E+00 0.20706728E+03</pdfrwt>
<totfact> 0.16905063E+04</totfact>
</mgrwt>
</event>
<event>
13      2 +1.4674046e+01 1.83585300e+02 7.54677100e-03 1.16443000e-01
       21 -1    0    0  502  503 +0.0000000000e+00 +0.0000000000e+00 +6.0331109327e+02 6.0331109327e+02 0.0000000000e+00 0.0000e+00 1.0000e+00
       -4 -1    0    0    0  501 -0.0000000000e+00 -0.0000000000e+00 -1.0635010109e+03 1.0635010109e+03 0.0000000000e+00 0.0000e+00 -1.0000e+00
        6  2    1    2  502    0 +3.7886089477e+01 -2.0066471618e+01 +4.1446884780e+02 4.5063373846e+02 1.7160513216e+02 0.0000e+00 0.0000e+00
       24  2    3    3    0    0 +5.8248201580e+01 -3.9546195002e+01 +4.0725391405e+02 4.2116815682e+02 8.1056222966e+01 0.0000e+00 0.0000e+00
       -6  2    1    2    0  501 -1.4814483402e+02 +8.3905439486e+01 +7.8671305426e+01 2.5437244529e+02 1.7184048417e+02 0.0000e+00 0.0000e+00
      -24  2    5    5    0    0 -1.6673792572e+02 +3.4635632998e+01 +5.2575155656e+01 1.9541215422e+02 8.0128647033e+01 0.0000e+00 0.0000e+00
        5  1    3    3  502    0 -2.0362112103e+01 +1.9479723384e+01 +7.2149337489e+00 2.9465581641e+01 4.7000000000e+00 0.0000e+00 -1.0000e+00
      -13  1    4    4    0    0 -1.6506529312e+00 -2.7155617488e+01 +3.7164863370e+01 4.6058433381e+01 0.0000000000e+00 0.0000e+00 1.0000e+00
       14  1    4    4    0    0 +5.9898854511e+01 -1.2390577514e+01 +3.7008905068e+02 3.7510972344e+02 0.0000000000e+00 0.0000e+00 -1.0000e+00
       -5  1    5    5    0  501 +1.8593091701e+01 +4.9269806487e+01 +2.6096149770e+01 5.8960291070e+01 4.7000000000e+00 0.0000e+00 1.0000e+00
       13  1    6    6    0    0 -1.1897439166e+02 +2.4667505664e+00 +2.3857421608e+00 1.1902387364e+02 0.0000000000e+00 0.0000e+00 -1.0000e+00
      -14  1    6    6    0    0 -4.7763534062e+01 +3.2168882432e+01 +5.0189413495e+01 7.6388280580e+01 0.0000000000e+00 0.0000e+00 1.0000e+00
       -4  1    1    2    0  503 +1.1025874454e+02 -6.3838967868e+01 -9.5333007089e+02 9.6180592046e+02 0.0000000000e+00 0.0000e+00 -1.0000e+00
<mgrwt>
<rscale>  3 0.18353023E+03</rscale>
<asrwt>0</asrwt>
<pdfrwt beam="1">  1       21 0.92817093E-01 0.18358532E+03</pdfrwt>
<pdfrwt beam="2">  1       -4 0.16361554E+00 0.18358532E+03</pdfrwt>
<totfact> 0.10460718E+01</totfact>
</mgrwt>
</event>
<event>
12      1 +1.4674046e+01 1.76914800e+02 7.54677100e-03 1.17083400e-01
       21 -1    0    0  501  502 +0.0000000000e+00 +0.0000000000e+00 +4.7848312467e+02 4.7848312467e+02 0.0000000000e+00 0.0000e+00 -1.0000e+00
       21 -1    0    0  502  503 -0.0000000000e+00 -0.0000000000e+00 -6.8341677426e+01 6.8341677426e+01 0.0000000000e+00 0.0000e+00 -1.0000e+00
       -6  2    1    2    0  503 -7.3584782099e+00 -3.8955636308e+01 +1.4832728068e+02 2.3086753735e+02 1.7241562808e+02 0.0000e+00 0.0000e+00
      -24  2    3    3    0    0 +9.6878046319e-01 -2.6071456334e+01 +1.7784229436e+02 1.9727332113e+02 8.1290972428e+01 0.0000e+00 0.0000e+00
        6  2    1    2  501    0 +7.3584782099e+00 +3.8955636308e+01 +2.6181416656e+02 3.1595726474e+02 1.7236776534e+02 0.0000e+00 0.0000e+00
       24  2    5    5    0    0 +5.8878039089e+01 -4.9134192027e+00 +9.9347316671e+01 1.3989952848e+02 7.8811316211e+01 0.0000e+00 0.0000e+00
        5  1    5    5  501    0 -5.1519560879e+01 +4.3869055511e+01 +1.6246684989e+02 1.7605773627e+02 4.7000000000e+00 0.0000e+00 -1.0000e+00
      -13  1    6    6    0    0 +1.8190769442e+01 +2.2548236274e+01 +8.3396474005e+01 8.8285326801e+01 0.0000000000e+00 0.0000e+00 1.0000e+00
       14  1    6    6    0    0 +4.0687269647e+01 -2.7461655476e+01 +1.5950842666e+01 5.1614201675e+01 0.0000000000e+00 0.0000e+00 -1.0000e+00
       -5  1    3    3    0  503 -8.3272586731e+00 -1.2884179974e+01 -2.9515013681e+01 3.3594216216e+01 4.7000000000e+00 0.0000e+00 1.0000e+00
       13  1    4    4    0    0 +3.5270699266e+01 -4.0016256113e+00 +3.9794407771e+01 5.3325698533e+01 0.0000000000e+00 0.0000e+00 -1.0000e+00
      -14  1    4    4    0    0 -3.4301918803e+01 -2.2069830723e+01 +1.3804788659e+02 1.4394762260e+02 0.0000000000e+00 0.0000e+00 1.0000e+00
<mgrwt>
<rscale>  2 0.17690311E+03</rscale>
<asrwt>0</asrwt>
<pdfrwt beam="1">  1       21 0.73612786E-01 0.17691477E+03</pdfrwt>
<pdfrwt beam="2">  1       21 0.10514105E-01 0.17691477E+03</pdfrwt>
<totfact> 0.12378678E+05</totfact>
</mgrwt>
</event>
<event>
12      1 +1.4674046e+01 2.17151500e+02 7.54677100e-03 1.13615400e-01
       21 -1    0    0  501  502 +0.0000000000e+00 +0.0000000000e+00 +1.6725059974e+02 1.6725059974e+02 0.0000000000e+00 0.0000e+00 1.0000e+00
       21 -1    0    0  502  503 -0.0000000000e+00 -0.0000000000e+00 -3.0103537861e+02 3.0103537861e+02 0.0000000000e+00 0.0000e+00 1.0000e+00
       -6  2    1    2    0  503 -1.3030414206e+02 -5.6870646725e+00 -1.2730810545e+02 2.5171834030e+02 1.7361813553e+02 0.0000e+00 0.0000e+00
      -24  2    3    3    0    0 -6.8443636962e+01 -3.3548206572e+01 -3.5269803061e+00 1.1048512090e+02 7.9903120996e+01 0.0000e+00 0.0000e+00
        6  2    1    2  501    0 +1.3030414206e+02 +5.6870646725e+00 -6.4766734145e+00 2.1656763806e+02 1.7276597585e+02 0.0000e+00 0.0000e+00
       24  2    5    5    0    0 -4.3881584369e-01 +1.0924503845e+01 +1.5949957021e+01 8.3728654458e+01 8.1465017674e+01 0.0000e+00 0.0000e+00
        5  1    5    5  501    0 +1.3074295791e+02 -5.2374391726e+00 -2.2426630436e+01 1.3283898360e+02 4.7000000000e+00 0.0000e+00 -1.0000e+00
      -13  1    6    6    0    0 -8.2504680382e+00 -2.6389032628e+01 +3.2065663208e+01 4.2339792429e+01 0.0000000000e+00 0.0000e+00 1.0000e+00
       14  1    6    6    0    0 +7.8116521945e+00 +3.7313536473e+01 -1.6115706187e+01 4.1388862029e+01 0.0000000000e+00 0.0000e+00 -1.0000e+00
       -5  1    3    3    0  503 -6.1860505100e+01 +2.7861141899e+01 -1.2378112515e+02 1.4123321940e+02 4.7000000000e+00 0.0000e+00 1.0000e+00
       13  1    4    4    0    0 -7.1802765634e+00 -4.7132491412e+01 -1.7752071887e+00 4.7709322766e+01 0.0000000000e+00 0.0000e+00 -1.0000e+00
      -14  1    4    4    0    0 -6.1263360399e+01 +1.3584284840e+01 -1.7517731174e+00 6.2775798131e+01 0.0000000000e+00 0.0000e+00 1.0000e+00
<mgrwt>
<rscale>  2 0.21698111E+03</rscale>
<asrwt>0</asrwt>
<pdfrwt beam="1">  1       21 0.25730861E-01 0.21715149E+03</pdfrwt>
<pdfrwt beam="2">  1       21 0.46313135E-01 0.21715149E+03</pdfrwt>
<totfact> 0.63323585E+04</totfact>
</mgrwt>
</event>
<event>
12      1 +1.4674046e+01 2.35714700e+02 7.54677100e-03 1.12315500e-01
       21 -1    0    0  501  502 +0.0000000000e+00 +0.0000000000e+00 +7.0042700354e+02 7.0042700354e+02 0.0000000000e+00 0.0000e+00 -1.0000e+00
       21 -1    0    0  502  503 -0.0000000000e+00 -0.0000000000e+00 -1.1586783681e+02 1.1586783681e+02 0.0000000000e+00 0.0000e+00 -1.0000e+00
       -6  2    1    2    0  503 +1.5819269101e+02 -3.3858412900e+00 +5.9016431113e+01 2.4031168620e+02 1.7096893277e+02 0.0000e+00 0.0000e+00
      -24  2    3    3    0    0 +1.8740345263e+01 -4.9304740210e+01 +4.6544314164e+01 9.2890026620e+01 6.0663217165e+01 0.0000e+00 0.0000e+00
        6  2    1    2  501    0 -1.5819269101e+02 +3.3858412900e+00 +5.2554273562e+02 5.7598315415e+02 1.7471415367e+02 0.0000e+00 0.0000e+00
       24  2    5    5    0    0 -1.7524714951e+02 -3.1896773184e+01 +4.5336730525e+02 4.9372076793e+02 8.0556288771e+01 0.0000e+00 0.0000e+00
        5  1    5    5  501    0 +1.7054458497e+01 +3.5282614474e+01 +7.2175430364e+01 8.2262386222e+01 4.7000000000e+00 0.0000e+00 -1.0000e+00
      -13  1    6    6    0    0 -3.3199754561e+01 +1.4353972152e+01 +3.8729182334e+01 5.2992544605e+01 0.0000000000e+00 0.0000e+00 1.0000e+00
       14  1    6    6    0    0 -1.4204739495e+02 -4.6250745336e+01 +4.1463812292e+02 4.4072822332e+02 0.0000000000e+00 0.0000e+00 -1.0000e+00
       -5  1    3    3    0  503 +1.3945234575e+02 +4.5918898920e+01 +1.2472116949e+01 1.4742165958e+02 4.7000000000e+00 0.0000e+00 1.0000e+00
       13  1    4    4    0    0 +7.8017197410e+00 -8.4318478658e+00 -1.4572724578e+01 1.8556055372e+01 0.0000000000e+00 0.0000e+00 -1.0000e+00
      -14  1    4    4    0    0 +1.0938625522e+01 -4.0872892344e+01 +6.1117038742e+01 7.4333971248e+01 0.0000000000e+00 0.0000e+00 1.0000e+00
<mgrwt>
<rscale>  2 0.23502105E+03</rscale>
<asrwt>0</asrwt>
<pdfrwt beam="1">  1       21 0.10775800E+00 0.23571472E+03</pdfrwt>
<pdfrwt beam="2">  1       21 0.17825821E-01 0.23571472E+03</pdfrwt>
<totfact> 0.19126170E+04</totfact>
</mgrwt>
</event>
<event>
12      1 +1.4674046e+01 2.47625500e+02 7.54677100e-03 1.11515900e-01
       21 -1    0    0  503  502 +0.0000000000e+00 +0.0000000000e+00 +2.0181660358e+02 2.0181660358e+02 0.0000000000e+00 0.0000e+00 -1.0000e+00
       21 -1    0    0  501  503 -0.0000000000e+00 -0.0000000000e+00 -3.0637953526e+02 3.0637953526e+02 0.0000000000e+00 0.0000e+00 -1.0000e+00
        6  2    1    2  501    0 +1.1738985181e+01 +1.7354323071e+02 -8.5077282175e+01 2.5980514536e+02 1.7322099443e+02 0.0000e+00 0.0000e+00
       24  2    3    3    0    0 -5.8577966041e+01 +9.0221666873e+01 -5.9730194817e+01 1.4777157241e+02 8.1837730667e+01 0.0000e+00 0.0000e+00
       -6  2    1    2    0  502 -1.1738985181e+01 -1.7354323071e+02 -1.9485649508e+01 2.4839099348e+02 1.7624794581e+02 0.0000e+00 0.0000e+00
      -24  2    5    5    0    0 -4.7274672489e+01 -1.5284859136e+02 -6.1774191639e+01 1.8921782417e+02 7.9935897382e+01 0.0000e+00 0.0000e+00
        5  1    3    3  501    0 +7.0316951222e+01 +8.3321563841e+01 -2.5347087358e+01 1.1203357295e+02 4.7000000000e+00 0.0000e+00 -1.0000e+00
      -13  1    4    4    0    0 -4.4294410014e+01 +1.4993291459e+01 +5.6255421121e+00 4.7100321351e+01 0.0000000000e+00 0.0000e+00 1.0000e+00
       14  1    4    4    0    0 -1.4283556027e+01 +7.5228375414e+01 -6.5355736929e+01 1.0067125106e+02 0.0000000000e+00 0.0000e+00 -1.0000e+00
       -5  1    5    5    0  502 +3.5535687308e+01 -2.0694639354e+01 +4.2288542131e+01 5.9173169309e+01 4.7000000000e+00 0.0000e+00 1.0000e+00
       13  1    6    6    0    0 +1.9264611789e+00 -5.6831274614e+01 +1.2516001274e+01 5.8225040273e+01 0.0000000000e+00 0.0000e+00 -1.0000e+00
      -14  1    6    6    0    0 -4.9201133668e+01 -9.6017316746e+01 -7.4290192913e+01 1.3099278389e+02 0.0000000000e+00 0.0000e+00 1.0000e+00
<mgrwt>
<rscale>  2 0.24708746E+03</rscale>
<asrwt>0</asrwt>
<pdfrwt beam="1">  1       21 0.31048708E-01 0.24762551E+03</pdfrwt>
<pdfrwt beam="2">  1       21 0.47135313E-01 0.24762551E+03</pdfrwt>
<totfact> 0.41831468E+04</totfact>
</mgrwt>
</event>
<event>
12      1 +1.4674046e+01 2.55205500e+02 7.54677100e-03 1.11010100e-01
       21 -1    0    0  503  502 +0.0000000000e+00 +0.0000000000e+00 +3.1436007876e+02 3.1436007876e+02 0.0000000000e+00 0.0000e+00 1.0000e+00
       21 -1    0    0  501  503 -0.0000000000e+00 -0.0000000000e+00 -3.3685450728e+02 3.3685450728e+02 0.0000000000e+00 0.0000e+00 -1.0000e+00
        6  2    1    2  501    0 -1.7382320056e+02 -7.1181782988e+01 -2.1344726145e+02 3.3270041379e+02 1.7276712833e+02 0.0000e+00 0.0000e+00
       24  2    3    3    0    0 -2.8905798359e+01 -4.5340817991e+01 -4.0183523077e+01 1.0529939803e+02 8.1128988308e+01 0.0000e+00 0.0000e+00
       -6  2    1    2    0  502 +1.7382320056e+02 +7.1181782988e+01 +1.9095283293e+02 3.1851417225e+02 1.7235701970e+02 0.0000e+00 0.0000e+00
      -24  2    5    5    0    0 +3.2850532418e+01 +6.8119024399e+01 +7.1587154065e+01 1.3370906154e+02 8.3869145374e+01 0.0000e+00 0.0000e+00
        5  1    3    3  501    0 -1.4491740221e+02 -2.5840964997e+01 -1.7326373837e+02 2.2740101576e+02 4.7000000000e+00 0.0000e+00 -1.0000e+00
      -13  1    4    4    0    0 -3.1569514195e+01 +1.3713450942e+01 -2.9278516233e+01 4.5187658449e+01 0.0000000000e+00 0.0000e+00 1.0000e+00
       14  1    4    4    0    0 +2.6637158363e+00 -5.9054268933e+01 -1.0905006844e+01 6.0111739582e+01 0.0000000000e+00 0.0000e+00 -1.0000e+00
       -5  1    5    5    0  502 +1.4097266815e+02 +3.0627585887e+00 +1.1936567886e+02 1.8480511071e+02 4.7000000000e+00 0.0000e+00 1.0000e+00
       13  1    6    6    0    0 -2.6028380118e+01 +2.9901806143e+01 +1.1415599181e+01 4.1254217807e+01 0.0000000000e+00 0.0000e+00 -1.0000e+00
      -14  1    6    6    0    0 +5.8878912536e+01 +3.8217218255e+01 +6.0171554885e+01 9.2454843734e+01 0.0000000000e+00 0.0000e+00 1.0000e+00
<mgrwt>
<rscale>  2 0.25513608E+03</rscale>
<asrwt>0</asrwt>
<pdfrwt beam="1">  1       21 0.48363089E-01 0.25520547E+03</pdfrwt>
<pdfrwt beam="2">  1       21 0.51823770E-01 0.25520547E+03</pdfrwt>
<totfact> 0.13924053E+04</totfact>
</mgrwt>
</event>
<event>
14      3 +1.4674046e+01 2.42537700e+02 7.54677100e-03 1.12568100e-01
       21 -1    0    0  501  502 +0.0000000000e+00 +0.0000000000e+00 +3.3727512643e+02 3.3727512643e+02 0.0000000000e+00 0.0000e+00 -1.0000e+00
       21 -1    0    0  502  503 -0.0000000000e+00 -0.0000000000e+00 -3.1321880927e+02 3.1321880927e+02 0.0000000000e+00 0.0000e+00 1.0000e+00
        6  2    1    2  501    0 -5.1377652289e+01 +8.8256540840e+01 +7.8517393316e+01 2.1565033245e+02 1.7294856078e+02 0.0000e+00 0.0000e+00
       24  2    3    3    0    0 -2.3339024106e+01 -4.7433066537e+00 +8.4171566681e+01 1.1823782822e+02 7.9549496414e+01 0.0000e+00 0.0000e+00
       -6  2    1    2    0  505 +9.1368944044e+01 +9.5194806122e+01 -2.3098126570e+01 2.2869982609e+02 1.8536383669e+02 0.0000e+00 0.0000e+00
      -24  2    5    5    0    0 +1.0724491098e+02 +1.0544008006e+02 -6.5860810682e+01 1.8171313524e+02 7.7864855499e+01 0.0000e+00 0.0000e+00
        5  1    3    3  501    0 -2.8038628182e+01 +9.2999847493e+01 -5.6541733650e+00 9.7412504231e+01 4.7000000000e+00 0.0000e+00 -1.0000e+00
      -13  1    4    4    0    0 -1.0726408177e+01 +1.1181585436e+01 -1.2217086685e+01 1.9731722994e+01 0.0000000000e+00 0.0000e+00 1.0000e+00
       14  1    4    4    0    0 -1.2612615929e+01 -1.5924892090e+01 +9.6388653366e+01 9.8506105224e+01 0.0000000000e+00 0.0000e+00 -1.0000e+00
       -5  1    5    5    0  505 -1.5875966936e+01 -1.0245273935e+01 +4.2762684113e+01 4.6986690846e+01 4.7000000000e+00 0.0000e+00 1.0000e+00
       13  1    6    6    0    0 +2.7892474538e+01 +2.9649668590e+01 +1.7097249299e+01 4.4152111127e+01 0.0000000000e+00 0.0000e+00 -1.0000e+00
      -14  1    6    6    0    0 +7.9352436442e+01 +7.5790411466e+01 -8.2958059981e+01 1.3756102411e+02 0.0000000000e+00 0.0000e+00 1.0000e+00
       21  1    1    2  504  503 -6.1861380307e+01 -1.0098018614e+02 -1.8308254637e+01 1.1982913066e+02 0.0000000000e+00 0.0000e+00 1.0000e+00
       21  1    1    2  505  504 +2.1870088552e+01 -8.2471160821e+01 -1.3054694956e+01 8.6314646503e+01 0.0000000000e+00 0.0000e+00 1.0000e+00
<mgrwt>
<rscale>  4 0.23136710E+03</rscale>
<asrwt>0</asrwt>
<pdfrwt beam="1">  1       21 0.51888481E-01 0.24253774E+03</pdfrwt>
<pdfrwt beam="2">  1       21 0.48187509E-01 0.24253774E+03</pdfrwt>
<totfact> 0.14085082E+04</totfact>
</mgrwt>
</event>
<event>
14      3 +1.4674046e+01 2.05725400e+02 7.54677100e-03 1.14512200e-01
        3 -1    0    0  501    0 -0.0000000000e+00 +0.0000000000e+00 +8.0478171313e+02 8.0478171313e+02 0.0000000000e+00 0.0000e+00 -1.0000e+00
       21 -1    0    0  504  503 +0.0000000000e+00 -0.0000000000e+00 -9.2411647314e+02 9.2411647314e+02 0.0000000000e+00 0.0000e+00 1.0000e+00
        6  2    1    2  501    0 -1.2550119388e+02 -1.0186902180e+02 -7.1838881309e+01 2.4717274702e+02 1.7264325859e+02 0.0000e+00 0.0000e+00
       24  2    3    3    0    0 -2.5444759820e+01 -4.4392585179e+01 -8.6584134584e+01 1.3074962536e+02 8.3549474861e+01 0.0000e+00 0.0000e+00
       -6  2    1    2    0  503 +6.6131734739e+01 +1.1161221120e+02 -6.2488715470e+02 6.6134201707e+02 1.7337420631e+02 0.0000e+00 0.0000e+00
      -24  2    5    5    0    0 +1.0429124337e+02 +4.7723428126e+01 -3.5432895638e+02 3.8069677237e+02 7.8910291608e+01 0.0000e+00 0.0000e+00
        5  1    3    3  501    0 -1.0005643406e+02 -5.7476436621e+01 +1.4745253275e+01 1.1642312166e+02 4.7000000000e+00 0.0000e+00 -1.0000e+00
      -13  1    4    4    0    0 -5.2804176938e+01 -9.6118967163e+00 -4.5396704755e+01 7.0296020252e+01 0.0000000000e+00 0.0000e+00 1.0000e+00
       14  1    4    4    0    0 +2.7359417118e+01 -3.4780688463e+01 -4.1187429829e+01 6.0453605111e+01 0.0000000000e+00 0.0000e+00 -1.0000e+00
       -5  1    5    5    0  503 -3.8159508635e+01 +6.3888783075e+01 -2.7055819831e+02 2.8064524471e+02 4.7000000000e+00 0.0000e+00 1.0000e+00
       13  1    6    6    0    0 +5.4828500211e+01 +2.3665758217e+01 -7.4335644160e+01 9.5352087235e+01 0.0000000000e+00 0.0000e+00 -1.0000e+00
      -14  1    6    6    0    0 +4.9462743162e+01 +2.4057669909e+01 -2.7999331222e+02 2.8534468513e+02 0.0000000000e+00 0.0000e+00 1.0000e+00
       21  1    1    2  504  502 -1.0553858386e+01 -3.7698002032e+01 -1.1625099541e+02 1.2266546872e+02 0.0000000000e+00 0.0000e+00 1.0000e+00
        3  1    1    2  502    0 +6.9923317526e+01 +2.7954812631e+01 +6.9364227141e+02 6.9771795345e+02 0.0000000000e+00 0.0000e+00 -1.0000e+00
<mgrwt>
<rscale>  4 0.20557132E+03</rscale>
<asrwt>0</asrwt>
<pdfrwt beam="2">  1       21 0.14217176E+00 0.20572540E+03</pdfrwt>
<pdfrwt beam="1">  1        3 0.12381257E+00 0.20572540E+03</pdfrwt>
<totfact> 0.92690091E+00</totfact>
</mgrwt>
</event>
<event>
13      2 +1.4674046e+01 4.49263900e+02 7.54677100e-03 1.02798200e-01
       21 -1    0    0  502  503 +0.0000000000e+00 +0.0000000000e+00 +7.0121060176e+02 7.0121060176e+02 0.0000000000e+00 0.0000e+00 1.0000e+00
       -2 -1    0    0    0  501 -0.0000000000e+00 -0.0000000000e+00 -8.6152393318e+02 8.6152393318e+02 0.0000000000e+00 0.0000e+00 -1.0000e+00
       -6  2    1    2    0  501 -3.4774520704e+02 -3.1119050568e+02 +2.7181463840e+02 5.6687762861e+02 1.7233916657e+02 0.0000e+00 0.0000e+00
      -24  2    3    3    0    0 -1.6396418310e+02 -8.1493437319e+01 +7.6610324636e+01 2.1380111838e+02 7.9475422058e+01 0.0000e+00 0.0000e+00
        6  2    1    2  502    0 +2.6371328776e+02 +2.4888256986e+02 +1.3115763853e+02 4.2293953104e+02 1.7374777424e+02 0.0000e+00 0.0000e+00
       24  2    5    5    0    0 +1.2171806205e+02 +1.1402513096e+02 +1.3039155821e+02 2.2705219141e+02 8.2059259382e+01 0.0000e+00 0.0000e+00
        5  1    5    5  502    0 +1.4199522571e+02 +1.3485743890e+02 +7.6608031846e-01 1.9588733963e+02 4.7000000000e+00 0.0000e+00 -1.0000e+00
      -13  1    6    6    0    0 +9.5196984033e+01 +3.8176251896e+01 +9.2897774470e+01 1.3838312209e+02 0.0000000000e+00 0.0000e+00 1.0000e+00
       14  1    6    6    0    0 +2.6521078019e+01 +7.5848879066e+01 +3.7493783745e+01 8.8669069322e+01 0.0000000000e+00 0.0000e+00 -1.0000e+00
       -5  1    3    3    0  501 -1.8378102393e+02 -2.2969706836e+02 +1.9520431376e+02 3.5307651024e+02 4.7000000000e+00 0.0000e+00 1.0000e+00
       13  1    4    4    0    0 -6.2037400730e+01 -3.7788493048e+01 +7.2788265114e+01 1.0283355889e+02 0.0000000000e+00 0.0000e+00 -1.0000e+00
      -14  1    4    4    0    0 -1.0192678237e+02 -4.3704944271e+01 +3.8220595217e+00 1.1096755948e+02 0.0000000000e+00 0.0000e+00 1.0000e+00
       -2  1    1    2    0  503 +8.4031919281e+01 +6.2307935819e+01 -5.6328560835e+02 5.7291737528e+02 0.0000000000e+00 0.0000e+00 -1.0000e+00
<mgrwt>
<rscale>  3 0.44912807E+03</rscale>
<asrwt>0</asrwt>
<pdfrwt beam="1">  1       21 0.10787855E+00 0.44926386E+03</pdfrwt>
<pdfrwt beam="2">  1       -2 0.13254214E+00 0.44926386E+03</pdfrwt>
<totfact> 0.21593576E+01</totfact>
</mgrwt>
</event>
<event>
13      2 +1.4674046e+01 1.85117500e+02 7.54677100e-03 1.16294000e-01
       -1 -1    0    0    0  501 -0.0000000000e+00 +0.0000000000e+00 +1.5682075139e+02 1.5682075139e+02 0.0000000000e+00 0.0000e+00 1.0000e+00
       21 -1    0    0  502  503 +0.0000000000e+00 -0.0000000000e+00 -8.8480761577e+02 8.8480761577e+02 0.0000000000e+00 0.0000e+00 1.0000e+00
       -6  2    1    2    0  501 -6.1875612065e+01 -4.4544718751e+01 +2.5297872414e+01 1.8800214589e+02 1.6997647242e+02 0.0000e+00 0.0000e+00
      -24  2    3    3    0    0 -6.5953471411e+01 -7.8205158099e+01 +5.6603267540e+01 1.4161495070e+02 7.9905927318e+01 0.0000e+00 0.0000e+00
        6  2    1    2  502    0 -7.5914411045e+01 +1.0644905984e+02 -6.0133735805e+02 6.3936879707e+02 1.7346884545e+02 0.0000e+00 0.0000e+00
       24  2    5    5    0    0 -1.1437600227e+02 +5.9824905780e+01 -4.8232851392e+02 5.0580869554e+02 8.0874915117e+01 0.0000e+00 0.0000e+00
        5  1    5    5  502    0 +3.8461591222e+01 +4.6624154064e+01 -1.1900884413e+02 1.3356010153e+02 4.7000000000e+00 0.0000e+00 -1.0000e+00
      -13  1    6    6    0    0 -6.7109087813e+01 -8.6228774449e+00 -2.5179071400e+02 2.6072312390e+02 0.0000000000e+00 0.0000e+00 1.0000e+00
       14  1    6    6    0    0 -4.7266914455e+01 +6.8447783225e+01 -2.3053779993e+02 2.4508557164e+02 0.0000000000e+00 0.0000e+00 -1.0000e+00
       -5  1    3    3    0  501 +4.0778593458e+00 +3.3660439349e+01 -3.1305395126e+01 4.6387195194e+01 4.7000000000e+00 0.0000e+00 1.0000e+00
       13  1    4    4    0    0 +5.5439190915e+00 +1.1608293363e+01 -1.4999936179e+00 1.2951351070e+01 0.0000000000e+00 0.0000e+00 -1.0000e+00
      -14  1    4    4    0    0 -7.1497390503e+01 -8.9813451462e+01 +5.8103261158e+01 1.2866359963e+02 0.0000000000e+00 0.0000e+00 1.0000e+00
       -1  1    1    2    0  503 +1.3779002311e+02 -6.1904341093e+01 -1.5194737874e+02 2.1425742419e+02 0.0000000000e+00 0.0000e+00 1.0000e+00
<mgrwt>
<rscale>  3 0.18511751E+03</rscale>
<asrwt>0</asrwt>
<pdfrwt beam="2">  1       21 0.13612425E+00 0.18511751E+03</pdfrwt>
<pdfrwt beam="1">  1       -1 0.24126270E-01 0.18511751E+03</pdfrwt>
<totfact> 0.51947982E+02</totfact>
</mgrwt>
</event>
<event>
14      3 +1.4674046e+01 3.94857000e+02 7.54677100e-03 1.04562700e-01
       21 -1    0    0  503  502 +0.0000000000e+00 +0.0000000000e+00 +7.1772424087e+02 7.1772424087e+02 0.0000000000e+00 0.0000e+00 -1.0000e+00
       21 -1    0    0  501  503 -0.0000000000e+00 -0.0000000000e+00 -3.8952670213e+02 3.8952670213e+02 0.0000000000e+00 0.0000e+00 -1.0000e+00
        6  2    1    2  501    0 -2.0230554220e+02 +3.3918417923e+02 -4.0495093972e+01 4.3340327717e+02 1.7385369764e+02 0.0000e+00 0.0000e+00
       24  2    3    3    0    0 -1.9594278960e+01 +1.1339732440e+02 +2.1541371124e+00 1.3979783369e+02 7.9346739375e+01 0.0000e+00 0.0000e+00
       -6  2    1    2    0  504 +2.5612348451e+02 -1.5803160454e+02 +3.0149006855e+02 4.5959952266e+02 1.7251733956e+02 0.0000e+00 0.0000e+00
      -24  2    5    5    0    0 +1.9446867145e+02 -8.4918287731e+01 +2.8356176917e+02 3.6218090542e+02 7.5753227974e+01 0.0000e+00 0.0000e+00
        5  1    3    3  501    0 -1.8271126324e+02 +2.2578685483e+02 -4.2649231084e+01 2.9360544348e+02 4.7000000000e+00 0.0000e+00 -1.0000e+00
      -13  1    4    4    0    0 -2.8316812155e+01 +1.1667362320e+02 +1.8012884951e+01 1.2140444895e+02 0.0000000000e+00 0.0000e+00 1.0000e+00
       14  1    4    4    0    0 +8.7225331951e+00 -3.2762988002e+00 -1.5858747839e+01 1.8393384740e+01 0.0000000000e+00 0.0000e+00 -1.0000e+00
       -5  1    5    5    0  504 +6.1654813058e+01 -7.3113316805e+01 +1.7928299383e+01 9.7418617247e+01 4.7000000000e+00 0.0000e+00 1.0000e+00
       13  1    6    6    0    0 +1.1947122092e+02 -9.0807791552e+01 +1.9135291666e+02 2.4317764360e+02 0.0000000000e+00 0.0000e+00 -1.0000e+00
      -14  1    6    6    0    0 +7.4997450530e+01 +5.8895038211e+00 +9.2208852506e+01 1.1900326181e+02 0.0000000000e+00 0.0000e+00 1.0000e+00
       21  1    1    2  504  505 -9.6187466769e+00 -5.1808097090e+01 -1.4948631213e+01 5.4772810653e+01 0.0000000000e+00 0.0000e+00 1.0000e+00
       21  1    1    2  505  502 -4.4199195626e+01 -1.2934447760e+02 +8.2151195364e+01 1.5947533251e+02 0.0000000000e+00 0.0000e+00 -1.0000e+00
<mgrwt>
<rscale>  4 0.39471024E+03</rscale>
<asrwt>0</asrwt>
<pdfrwt beam="1">  1       21 0.11041911E+00 0.39485697E+03</pdfrwt>
<pdfrwt beam="2">  1       21 0.59927185E-01 0.39485697E+03</pdfrwt>
<totfact> 0.14729953E+03</totfact>
</mgrwt>
</event>
<event>
14      3 +1.4674046e+01 1.85286500e+02 7.54677100e-03 1.16314300e-01
       21 -1    0    0  503  502 +0.0000000000e+00 +0.0000000000e+00 +3.7355750342e+02 3.7355750342e+02 0.0000000000e+00 0.0000e+00 1.0000e+00
       21 -1    0    0  504  503 -0.0000000000e+00 -0.0000000000e+00 -1.0941916313e+03 1.0941916313e+03 0.0000000000e+00 0.0000e+00 1.0000e+00
        6  2    1    2  501    0 +1.1884415051e+02 +6.7311495233e+00 +7.7310300916e+01 2.2403292642e+02 1.7333386573e+02 0.0000e+00 0.0000e+00
       24  2    3    3    0    0 +1.4965562944e+02 +8.7263020488e-01 +3.9169087904e+01 1.7442938207e+02 8.0584260090e+01 0.0000e+00 0.0000e+00
       -6  2    1    2    0  502 -3.9658323816e+01 +9.8204780823e-01 +1.8356665215e+02 2.5445255821e+02 1.7168471549e+02 0.0000e+00 0.0000e+00
      -24  2    5    5    0    0 -6.9587291343e+01 +6.1776237907e+00 +5.8503489623e+01 1.2566738154e+02 8.6539461137e+01 0.0000e+00 0.0000e+00
        5  1    3    3  501    0 -3.0811478934e+01 +5.8585193184e+00 +3.8141213012e+01 4.9603544357e+01 4.7000000000e+00 0.0000e+00 -1.0000e+00
      -13  1    4    4    0    0 +8.7327953045e+01 -2.7688562142e+01 -6.8320315051e+00 9.1866775882e+01 0.0000000000e+00 0.0000e+00 1.0000e+00
       14  1    4    4    0    0 +6.2327676395e+01 +2.8561192347e+01 +4.6001119409e+01 8.2562606184e+01 0.0000000000e+00 0.0000e+00 -1.0000e+00
       -5  1    5    5    0  502 +2.9928967527e+01 -5.1955759825e+00 +1.2506316253e+02 1.2878517667e+02 4.7000000000e+00 0.0000e+00 1.0000e+00
       13  1    6    6    0    0 +3.4583495904e+00 -1.9772868682e+01 -9.8114018458e+00 2.2342563057e+01 0.0000000000e+00 0.0000e+00 -1.0000e+00
      -14  1    6    6    0    0 -7.3045640934e+01 +2.5950492472e+01 +6.8314891469e+01 1.0332481849e+02 0.0000000000e+00 0.0000e+00 1.0000e+00
       21  1    1    2  504  505 +1.8955219162e+01 +9.9768874091e+00 -2.6209535509e+02 2.6296922591e+02 0.0000000000e+00 0.0000e+00 -1.0000e+00
       21  1    1    2  505  501 -9.8141045852e+01 -1.7690084741e+01 -7.1941572587e+02 7.2629442419e+02 0.0000000000e+00 0.0000e+00 1.0000e+00
<mgrwt>
<rscale>  4 0.18489980E+03</rscale>
<asrwt>0</asrwt>
<pdfrwt beam="1">  1       21 0.57470386E-01 0.18528647E+03</pdfrwt>
<pdfrwt beam="2">  1       21 0.16833717E+00 0.18528647E+03</pdfrwt>
<totfact> 0.62823141E+02</totfact>
</mgrwt>
</event>
<event>
14      3 +1.4674046e+01 2.14074400e+02 7.54677100e-03 1.13864800e-01
       21 -1    0    0  501  502 +0.0000000000e+00 +0.0000000000e+00 +3.6823711060e+02 3.6823711060e+02 0.0000000000e+00 0.0000e+00 1.0000e+00
       21 -1    0    0  505  503 -0.0000000000e+00 -0.0000000000e+00 -4.7940344525e+02 4.7940344525e+02 0.0000000000e+00 0.0000e+00 -1.0000e+00
       -6  2    1    2    0  504 -1.5138966244e+02 +1.6633568608e+02 -1.0571614668e+02 3.0191842976e+02 1.7144224744e+02 0.0000e+00 0.0000e+00
      -24  2    3    3    0    0 -6.5765158501e+01 +1.6754738951e+02 -7.5109849619e+01 2.1085878272e+02 8.0142079673e+01 0.0000e+00 0.0000e+00
        6  2    1    2  501    0 +4.2040223231e+01 -5.4962908311e+01 -1.7852135492e+02 2.5815122114e+02 1.7315853186e+02 0.0000e+00 0.0000e+00
       24  2    5    5    0    0 +9.0352963856e+01 -1.5597085652e+01 -1.2531276111e+02 1.7607178793e+02 8.3012404201e+01 0.0000e+00 0.0000e+00
        5  1    5    5  501    0 -4.8312740625e+01 -3.9365822658e+01 -5.3208593819e+01 8.2079433213e+01 4.7000000000e+00 0.0000e+00 -1.0000e+00
      -13  1    6    6    0    0 +2.7207413778e+01 +3.3583058773e+01 -3.7099556175e+01 5.6960005876e+01 0.0000000000e+00 0.0000e+00 1.0000e+00
       14  1    6    6    0    0 +6.3145550079e+01 -4.9180144425e+01 -8.8213204930e+01 1.1911178206e+02 0.0000000000e+00 0.0000e+00 -1.0000e+00
       -5  1    3    3    0  504 -8.5624503938e+01 -1.2117034395e+00 -3.0606297058e+01 9.1059647042e+01 4.7000000000e+00 0.0000e+00 1.0000e+00
       13  1    4    4    0    0 -3.3795848759e+01 +9.5035763574e+01 +1.1592006450e+00 1.0087268955e+02 0.0000000000e+00 0.0000e+00 -1.0000e+00
      -14  1    4    4    0    0 -3.1969309741e+01 +7.2511625941e+01 -7.6269050264e+01 1.0998609317e+02 0.0000000000e+00 0.0000e+00 1.0000e+00
       21  1    1    2  504  503 +2.8920144811e+01 -1.2156242202e+01 -3.2743888505e+01 4.5346568060e+01 0.0000000000e+00 0.0000e+00 1.0000e+00
       21  1    1    2  505  502 +8.0429294397e+01 -9.9216535562e+01 +2.0581505546e+02 2.4222433689e+02 0.0000000000e+00 0.0000e+00 1.0000e+00
<mgrwt>
<rscale>  4 0.21372712E+03</rscale>
<asrwt>0</asrwt>
<pdfrwt beam="1">  1       21 0.56651863E-01 0.21407443E+03</pdfrwt>
<pdfrwt beam="2">  1       21 0.73754376E-01 0.21407443E+03</pdfrwt>
<totfact> 0.47558620E+03</totfact>
</mgrwt>
</event>
<event>
14      3 +1.4674046e+01 1.81814400e+02 7.54677100e-03 1.16727000e-01
       21 -1    0    0  505  502 +0.0000000000e+00 +0.0000000000e+00 +5.4924102069e+02 5.4924102069e+02 0.0000000000e+00 0.0000e+00 1.0000e+00
       21 -1    0    0  504  503 -0.0000000000e+00 -0.0000000000e+00 -4.5669069263e+02 4.5669069263e+02 0.0000000000e+00 0.0000e+00 -1.0000e+00
        6  2    1    2  501    0 +6.8119033241e+01 -6.3679271975e+01 +2.8198769254e+01 1.9916892072e+02 1.7371769059e+02 0.0000e+00 0.0000e+00
       24  2    3    3    0    0 +9.4636250270e+01 -3.6644003897e+01 +6.5935316233e+01 1.4550137469e+02 8.0773641881e+01 0.0000e+00 0.0000e+00
       -6  2    1    2    0  502 -3.4762001840e+01 +2.9348405976e+01 +4.1367715672e+02 4.4898095439e+02 1.6847961808e+02 0.0000e+00 0.0000e+00
      -24  2    5    5    0    0 -6.0592727679e+01 +2.8803621531e+01 +1.4209676426e+02 1.7613388595e+02 7.9564615916e+01 0.0000e+00 0.0000e+00
        5  1    3    3  501    0 -2.6517217029e+01 -2.7035268079e+01 -3.7736546979e+01 5.3667546030e+01 4.7000000000e+00 0.0000e+00 -1.0000e+00
      -13  1    4    4    0    0 +7.3878046873e+01 -5.1400327521e+01 +1.8825206827e+01 9.1947527923e+01 0.0000000000e+00 0.0000e+00 1.0000e+00
       14  1    4    4    0    0 +2.0758203396e+01 +1.4756323624e+01 +4.7110109406e+01 5.3553846765e+01 0.0000000000e+00 0.0000e+00 -1.0000e+00
       -5  1    5    5    0  502 +2.5830725840e+01 +5.4478444492e-01 +2.7158039246e+02 2.7284706844e+02 4.7000000000e+00 0.0000e+00 1.0000e+00
       13  1    6    6    0    0 +1.7349124535e+01 -5.9400685841e+00 +1.9567938035e+01 2.6817545299e+01 0.0000000000e+00 0.0000e+00 -1.0000e+00
      -14  1    6    6    0    0 -7.7941852214e+01 +3.4743690115e+01 +1.2252882623e+02 1.4931634065e+02 0.0000000000e+00 0.0000e+00 1.0000e+00
       21  1    1    2  504  501 +3.1675851439e+00 +3.6232225052e+01 -2.3359745939e+02 2.3641188795e+02 0.0000000000e+00 0.0000e+00 -1.0000e+00
       21  1    1    2  505  503 -3.6524616545e+01 -1.9013590525e+00 -1.1572813853e+02 1.2136995026e+02 0.0000000000e+00 0.0000e+00 -1.0000e+00
<mgrwt>
<rscale>  4 0.18055181E+03</rscale>
<asrwt>0</asrwt>
<pdfrwt beam="1">  1       21 0.84498619E-01 0.18181442E+03</pdfrwt>
<pdfrwt beam="2">  1       21 0.70260106E-01 0.18181442E+03</pdfrwt>
<totfact> 0.22542279E+03</totfact>
</mgrwt>
</event>
<event>
12      1 +1.4674046e+01 2.03055300e+02 7.54677100e-03 1.14734400e-01
       21 -1    0    0  501  502 +0.0000000000e+00 +0.0000000000e+00 +2.5542404987e+02 2.5542404987e+02 0.0000000000e+00 0.0000e+00 1.0000e+00
       21 -1    0    0  502  503 -0.0000000000e+00 -0.0000000000e+00 -3.2314666177e+02 3.2314666177e+02 0.0000000000e+00 0.0000e+00 1.0000e+00
       -6  2    1    2    0  503 +3.7269424485e+01 +9.7169775466e+01 -2.3892380196e+02 3.1355391486e+02 1.7435738904e+02 0.0000e+00 0.0000e+00
      -24  2    3    3    0    0 +5.5758172457e+01 +1.3145313387e+02 -1.9604659761e+02 2.5543569811e+02 8.0151277172e+01 0.0000e+00 0.0000e+00
        6  2    1    2  501    0 -3.7269424485e+01 -9.7169775466e+01 +1.7120119005e+02 2.6501679678e+02 1.7347357100e+02 0.0000e+00 0.0000e+00
       24  2    5    5    0    0 +3.0407554452e+01 -4.5319650967e+01 +2.7461933062e+01 9.7829258699e+01 7.6406256018e+01 0.0000e+00 0.0000e+00
        5  1    5    5  501    0 -6.7676978937e+01 -5.1850124499e+01 +1.4373925699e+02 1.6718753808e+02 4.7000000000e+00 0.0000e+00 -1.0000e+00
      -13  1    6    6    0    0 +1.4602070213e+00 -6.0716495335e+01 +2.1966955232e+01 6.4584612196e+01 0.0000000000e+00 0.0000e+00 1.0000e+00
       14  1    6    6    0    0 +2.8947347431e+01 +1.5396844369e+01 +5.4949778294e+00 3.3244646503e+01 0.0000000000e+00 0.0000e+00 -1.0000e+00
       -5  1    3    3    0  503 -1.8488747972e+01 -3.4283358408e+01 -4.2877204345e+01 5.8118216746e+01 4.7000000000e+00 0.0000e+00 1.0000e+00
       13  1    4    4    0    0 -1.2132845490e+01 +1.4837419632e+01 -6.3336295059e+01 6.6172813397e+01 0.0000000000e+00 0.0000e+00 -1.0000e+00
      -14  1    4    4    0    0 +6.7891017947e+01 +1.1661571424e+02 -1.3271030255e+02 1.8926288471e+02 0.0000000000e+00 0.0000e+00 1.0000e+00
<mgrwt>
<rscale>  2 0.20286548E+03</rscale>
<asrwt>0</asrwt>
<pdfrwt beam="1">  1       21 0.39296008E-01 0.20305535E+03</pdfrwt>
<pdfrwt beam="2">  1       21 0.49714871E-01 0.20305535E+03</pdfrwt>
<totfact> 0.23930234E+04</totfact>
</mgrwt>
</event>
<event>
14      3 +1.4674046e+01 1.89268800e+02 7.54677100e-03 1.15935400e-01
       21 -1    0    0  504  502 +0.0000000000e+00 +0.0000000000e+00 +1.6843794847e+02 1.6843794847e+02 0.0000000000e+00 0.0000e+00 -1.0000e+00
       21 -1    0    0  505  503 -0.0000000000e+00 -0.0000000000e+00 -6.1656058379e+02 6.1656058379e+02 0.0000000000e+00 0.0000e+00 -1.0000e+00
        6  2    1    2  501    0 -2.9371281985e+01 +6.0620885054e+01 -1.8088915006e+02 2.5941830033e+02 1.7331879882e+02 0.0000e+00 0.0000e+00
       24  2    3    3    0    0 -7.5933555089e+01 +6.0420143020e+01 -1.6959917568e+02 2.1127643605e+02 8.0357660310e+01 0.0000e+00 0.0000e+00
       -6  2    1    2    0  502 +9.9276981036e+01 +3.9527068728e+01 +1.0119952307e+01 2.0291851910e+02 1.7220686349e+02 0.0000e+00 0.0000e+00
      -24  2    5    5    0    0 +9.5626211825e+01 +7.0578890567e+01 +4.8860495056e+01 1.5291388524e+02 8.2882785542e+01 0.0000e+00 0.0000e+00
        5  1    3    3  501    0 +4.6562273104e+01 +2.0074203457e-01 -1.1289974380e+01 4.8141864271e+01 4.7000000000e+00 0.0000e+00 -1.0000e+00
      -13  1    4    4    0    0 -4.7967619361e+00 +3.4722842528e+01 -1.0857298687e+02 1.1409109605e+02 0.0000000000e+00 0.0000e+00 1.0000e+00
       14  1    4    4    0    0 -7.1136793153e+01 +2.5697300492e+01 -6.1026188803e+01 9.7185340008e+01 0.0000000000e+00 0.0000e+00 -1.0000e+00
       -5  1    5    5    0  502 +3.6507692110e+00 -3.1051821838e+01 -3.8740542749e+01 5.0004633863e+01 4.7000000000e+00 0.0000e+00 1.0000e+00
       13  1    6    6    0    0 +9.0420516310e+01 +2.2190211408e+01 +1.6725682608e+01 9.4593994052e+01 0.0000000000e+00 0.0000e+00 -1.0000e+00
      -14  1    6    6    0    0 +5.2056955150e+00 +4.8388679159e+01 +3.2134812448e+01 5.8319891183e+01 0.0000000000e+00 0.0000e+00 1.0000e+00
       21  1    1    2  504  503 -3.3492513170e+00 -2.4015220480e+01 +3.1833091376e+00 2.4455710093e+01 0.0000000000e+00 0.0000e+00 1.0000e+00
       21  1    1    2  505  501 -6.6556447734e+01 -7.6132733302e+01 -2.8053674671e+02 2.9820600274e+02 0.0000000000e+00 0.0000e+00 -1.0000e+00
<mgrwt>
<rscale>  4 0.18901382E+03</rscale>
<asrwt>0</asrwt>
<pdfrwt beam="1">  1       21 0.25913531E-01 0.18926876E+03</pdfrwt>
<pdfrwt beam="2">  1       21 0.94855472E-01 0.18926876E+03</pdfrwt>
<totfact> 0.13176838E+04</totfact>
</mgrwt>
</event>
<event>
13      2 +1.4674046e+01 2.21851200e+02 7.54677100e-03 1.13304600e-01
       21 -1    0    0  503  502 +0.0000000000e+00 +0.0000000000e+00 +1.6141475856e+02 1.6141475856e+02 0.0000000000e+00 0.0000e+00 -1.0000e+00
       21 -1    0    0  501  503 -0.0000000000e+00 -0.0000000000e+00 -5.7801886896e+02 5.7801886896e+02 0.0000000000e+00 0.0000e+00 1.0000e+00
        6  2    1    2  501    0 -1.2632741538e+02 +7.8014029022e+01 -1.0742609674e+02 2.5186900730e+02 1.7277970360e+02 0.0000e+00 0.0000e+00
       24  2    3    3    0    0 -7.8364571841e+01 +2.2073373548e+01 -1.2995843612e+02 1.7467064195e+02 8.3620560265e+01 0.0000e+00 0.0000e+00
       -6  2    1    2    0  504 +1.0518525944e+02 -8.5723379824e+01 -3.6659615231e+02 4.2589398301e+02 1.6905770973e+02 0.0000e+00 0.0000e+00
      -24  2    5    5    0    0 +1.0446121264e+02 -1.0953733632e+02 -2.3239052350e+02 2.8950897806e+02 8.3063349149e+01 0.0000e+00 0.0000e+00
        5  1    3    3  501    0 -4.7962843538e+01 +5.5940655474e+01 +2.2532339381e+01 7.7198365353e+01 4.7000000000e+00 0.0000e+00 -1.0000e+00
      -13  1    4    4    0    0 -4.9999174933e+01 +4.9376168215e+01 -5.2281137526e+01 8.7585619953e+01 0.0000000000e+00 0.0000e+00 1.0000e+00
       14  1    4    4    0    0 -2.8365396908e+01 -2.7302794667e+01 -7.7677298597e+01 8.7085021994e+01 0.0000000000e+00 0.0000e+00 -1.0000e+00
       -5  1    5    5    0  504 +7.2404679920e-01 +2.3813956501e+01 -1.3420562881e+02 1.3638500494e+02 4.7000000000e+00 0.0000e+00 1.0000e+00
       13  1    6    6    0    0 -2.1060956423e+00 -1.6494881429e+01 +9.2488524151e-01 1.6654493835e+01 0.0000000000e+00 0.0000e+00 -1.0000e+00
      -14  1    6    6    0    0 +1.0656730829e+02 -9.3042454896e+01 -2.3331540874e+02 2.7285448423e+02 0.0000000000e+00 0.0000e+00 1.0000e+00
       21  1    1    2  504  502 +2.1142155937e+01 +7.7093508020e+00 +5.7418138656e+01 6.1670637212e+01 0.0000000000e+00 0.0000e+00 1.0000e+00
<mgrwt>
<rscale>  3 0.22112608E+03</rscale>
<asrwt>0</asrwt>
<pdfrwt beam="1">  1       21 0.24833039E-01 0.22185119E+03</pdfrwt>
<pdfrwt beam="2">  1       21 0.88925982E-01 0.22185119E+03</pdfrwt>
<totfact> 0.16275630E+04</totfact>
</mgrwt>
</event>
<event>
14      3 +1.4674046e+01 1.91094200e+02 7.54677100e-03 1.15759700e-01
       21 -1    0    0  501  502 +0.0000000000e+00 +0.0000000000e+00 +8.1483536138e+02 8.1483536138e+02 0.0000000000e+00 0.0000e+00 -1.0000e+00
       21 -1    0    0  504  503 -0.0000000000e+00 -0.0000000000e+00 -3.9895087864e+02 3.9895087864e+02 0.0000000000e+00 0.0000e+00 1.0000e+00
        6  2    1    2  501    0 -4.9286157372e+01 +5.4656822278e+01 +4.0469328807e+02 4.4612520692e+02 1.7272680542e+02 0.0000e+00 0.0000e+00
       24  2    3    3    0    0 -8.7294426220e+01 +2.8293917289e+00 +2.1168673227e+02 2.4264466327e+02 8.0229905222e+01 0.0000e+00 0.0000e+00
       -6  2    1    2    0  505 +1.4784668818e+02 +3.2929367926e+01 -7.9947683304e+01 2.4282964216e+02 1.7213836461e+02 0.0000e+00 0.0000e+00
      -24  2    5    5    0    0 +1.3142411915e+02 -3.3620782745e+01 -4.2616538961e+01 1.6463547572e+02 8.2982012181e+01 0.0000e+00 0.0000e+00
        5  1    3    3  501    0 +3.8008268848e+01 +5.1827430549e+01 +1.9300655580e+02 2.0348054364e+02 4.7000000000e+00 0.0000e+00 -1.0000e+00
      -13  1    4    4    0    0 +9.7979043476e+00 +1.6905421011e+01 +4.7764257181e+01 5.1606360589e+01 0.0000000000e+00 0.0000e+00 1.0000e+00
       14  1    4    4    0    0 -9.7092330568e+01 -1.4076029282e+01 +1.6392247508e+02 1.9103830269e+02 0.0000000000e+00 0.0000e+00 -1.0000e+00
       -5  1    5    5    0  505 +1.6422569027e+01 +6.6550150671e+01 -3.7331144343e+01 7.8194166443e+01 4.7000000000e+00 0.0000e+00 1.0000e+00
       13  1    6    6    0    0 +4.4361733295e+01 +1.0857320368e+01 +1.8569290702e+01 4.9301758018e+01 0.0000000000e+00 0.0000e+00 -1.0000e+00
      -14  1    6    6    0    0 +8.7062385856e+01 -4.4478103113e+01 -6.1185829663e+01 1.1533371770e+02 0.0000000000e+00 0.0000e+00 1.0000e+00
       21  1    1    2  504  502 -2.6100873908e+01 -3.9760852565e+01 +2.9732854761e+02 3.0110869505e+02 0.0000000000e+00 0.0000e+00 -1.0000e+00
       21  1    1    2  505  503 -7.2459656897e+01 -4.7825337639e+01 -2.0618966962e+02 2.2372269589e+02 0.0000000000e+00 0.0000e+00 1.0000e+00
<mgrwt>
<rscale>  4 0.19096109E+03</rscale>
<asrwt>0</asrwt>
<pdfrwt beam="1">  1       21 0.12535929E+00 0.19109416E+03</pdfrwt>
<pdfrwt beam="2">  1       21 0.61377058E-01 0.19109416E+03</pdfrwt>
<totfact> 0.11706318E+03</totfact>
</mgrwt>
</event>
<event>
14      3 +1.4674046e+01 1.81464100e+02 7.54677100e-03 1.16641800e-01
       21 -1    0    0  501  502 +0.0000000000e+00 +0.0000000000e+00 +3.4132280020e+02 3.4132280020e+02 0.0000000000e+00 0.0000e+00 1.0000e+00
       21 -1    0    0  505  503 -0.0000000000e+00 -0.0000000000e+00 -2.7089429762e+02 2.7089429762e+02 0.0000000000e+00 0.0000e+00 1.0000e+00
       -6  2    1    2    0  503 +3.9860216868e+00 +4.7305512733e+01 -9.1715345143e+00 1.8017293196e+02 1.7356401834e+02 0.0000e+00 0.0000e+00
      -24  2    3    3    0    0 +5.7913548346e+01 +4.9084380060e+01 -3.8729101340e+01 1.1847137398e+02 8.2293789036e+01 0.0000e+00 0.0000e+00
        6  2    1    2  501    0 +1.9233428863e+01 -4.6626206758e+01 -1.1206762246e+02 2.1275297728e+02 1.7366850433e+02 0.0000e+00 0.0000e+00
       24  2    5    5    0    0 -4.3273415684e+01 -5.9063520637e+01 -4.3401079347e+01 1.1895011734e+02 8.3092651605e+01 0.0000e+00 0.0000e+00
        5  1    5    5  501    0 +6.2506844548e+01 +1.2437313880e+01 -6.8666543108e+01 9.3802859947e+01 4.7000000000e+00 0.0000e+00 -1.0000e+00
      -13  1    6    6    0    0 -1.2911959001e+01 -5.4935683504e+01 -6.1415825845e+01 8.3405945061e+01 0.0000000000e+00 0.0000e+00 1.0000e+00
       14  1    6    6    0    0 -3.0361456684e+01 -4.1278371333e+00 +1.8014746498e+01 3.5544172275e+01 0.0000000000e+00 0.0000e+00 -1.0000e+00
       -5  1    3    3    0  503 -5.3927526660e+01 -1.7788673271e+00 +2.9557566825e+01 6.1701557980e+01 4.7000000000e+00 0.0000e+00 1.0000e+00
       13  1    4    4    0    0 +1.1337734349e+01 -1.5854988947e+01 +1.2859414772e+01 2.3351433424e+01 0.0000000000e+00 0.0000e+00 -1.0000e+00
      -14  1    4    4    0    0 +4.6575813998e+01 +6.4939369007e+01 -5.1588516111e+01 9.5119940555e+01 0.0000000000e+00 0.0000e+00 1.0000e+00
       21  1    1    2  504  502 -3.1865092576e+01 +1.8166159959e+01 +1.9488705054e+02 1.9830873899e+02 0.0000000000e+00 0.0000e+00 1.0000e+00
       21  1    1    2  505  504 +8.6456420257e+00 -1.8845465934e+01 -3.2193909855e+00 2.0982449586e+01 0.0000000000e+00 0.0000e+00 -1.0000e+00
<mgrwt>
<rscale>  4 0.18143905E+03</rscale>
<asrwt>0</asrwt>
<pdfrwt beam="1">  1       21 0.52511200E-01 0.18146406E+03</pdfrwt>
<pdfrwt beam="2">  1       21 0.41676046E-01 0.18146406E+03</pdfrwt>
<totfact> 0.19190286E+04</totfact>
</mgrwt>
</event>
<event>
13      2 +1.4674046e+01 1.93769600e+02 7.54677100e-03 1.15519000e-01
       21 -1    0    0  503  502 +0.0000000000e+00 +0.0000000000e+00 +5.0258279362e+02 5.0258279362e+02 0.0000000000e+00 0.0000e+00 -1.0000e+00
       21 -1    0    0  504  503 -0.0000000000e+00 -0.0000000000e+00 -6.3711341621e+02 6.3711341621e+02 0.0000000000e+00 0.0000e+00 -1.0000e+00
        6  2    1    2  501    0 -3.8093111371e+01 -5.0873995980e+01 +2.9866526812e+01 1.8919515482e+02 1.7568024528e+02 0.0000e+00 0.0000e+00
       24  2    3    3    0    0 -5.3572698533e+01 -7.3814881650e+01 -2.6382392937e+01 1.2633075451e+02 8.3335215221e+01 0.0000e+00 0.0000e+00
       -6  2    1    2    0  502 +6.9339027394e+01 +5.4031936164e+01 +3.6811027410e+02 4.1706836389e+02 1.7525266164e+02 0.0000e+00 0.0000e+00
      -24  2    5    5    0    0 +1.0714034242e+02 +1.6871192414e+01 +3.0956403450e+02 3.3795065117e+02 8.1345319867e+01 0.0000e+00 0.0000e+00
        5  1    3    3  501    0 +1.5479587162e+01 +2.2940885669e+01 +5.6248919749e+01 6.2864400315e+01 4.7000000000e+00 0.0000e+00 -1.0000e+00
      -13  1    4    4    0    0 -7.8086492419e+00 -2.2808796259e+01 -4.8633947609e+01 5.4281461382e+01 0.0000000000e+00 0.0000e+00 1.0000e+00
       14  1    4    4    0    0 -4.5764049291e+01 -5.1006085390e+01 +2.2251554671e+01 7.2049293124e+01 0.0000000000e+00 0.0000e+00 -1.0000e+00
       -5  1    5    5    0  502 -3.7801315028e+01 +3.7160743750e+01 +5.8546239604e+01 7.9117712718e+01 4.7000000000e+00 0.0000e+00 1.0000e+00
       13  1    6    6    0    0 +3.5946893069e+01 +4.3508682449e+01 +9.7257108336e+01 1.1244611906e+02 0.0000000000e+00 0.0000e+00 -1.0000e+00
      -14  1    6    6    0    0 +7.1193449353e+01 -2.6637490035e+01 +2.1230692616e+02 2.2550453211e+02 0.0000000000e+00 0.0000e+00 1.0000e+00
       21  1    1    2  504  501 -3.1245916024e+01 -3.1579401844e+00 -5.3250742351e+02 5.3343269111e+02 0.0000000000e+00 0.0000e+00 -1.0000e+00
<mgrwt>
<rscale>  3 0.19367266E+03</rscale>
<asrwt>0</asrwt>
<pdfrwt beam="1">  1       21 0.77320430E-01 0.19376963E+03</pdfrwt>
<pdfrwt beam="2">  1       21 0.98017448E-01 0.19376963E+03</pdfrwt>
<totfact> 0.12769390E+03</totfact>
</mgrwt>
</event>
<event>
14      3 +1.4674046e+01 2.16116100e+02 7.54677100e-03 1.13731400e-01
       21 -1    0    0  501  503 +0.0000000000e+00 +0.0000000000e+00 +2.1626574548e+02 2.1626574548e+02 0.0000000000e+00 0.0000e+00 -1.0000e+00
        2 -1    0    0  503    0 -0.0000000000e+00 -0.0000000000e+00 -3.2769382180e+03 3.2769382180e+03 0.0000000000e+00 0.0000e+00 -1.0000e+00
       -6  2    1    2    0  504 +1.8578365651e+02 -1.7750233451e+01 -1.5375227115e+02 2.9376102802e+02 1.6680870146e+02 0.0000e+00 0.0000e+00
      -24  2    3    3    0    0 +1.1427308147e+02 +3.6427184270e+01 -1.3912782471e+02 2.0273949558e+02 8.5799035866e+01 0.0000e+00 0.0000e+00
        6  2    1    2  501    0 -1.1092193709e+02 +3.6615751350e+01 +7.2431179098e+01 2.1872257446e+02 1.7014376127e+02 0.0000e+00 0.0000e+00
       24  2    5    5    0    0 -9.2698495367e+01 -2.3471557112e+01 +8.6563092546e+01 1.5419057120e+02 8.4484544272e+01 0.0000e+00 0.0000e+00
        5  1    5    5  501    0 -1.8223441721e+01 +6.0087308462e+01 -1.4131913449e+01 6.4532003255e+01 4.7000000000e+00 0.0000e+00 -1.0000e+00
      -13  1    6    6    0    0 -9.7069490273e+01 -4.8947850585e+00 +9.2530623000e+01 1.3419523485e+02 0.0000000000e+00 0.0000e+00 1.0000e+00
       14  1    6    6    0    0 +4.3709949056e+00 -1.8576772053e+01 -5.9675304540e+00 1.9995336359e+01 0.0000000000e+00 0.0000e+00 -1.0000e+00
       -5  1    3    3    0  504 +7.1510575044e+01 -5.4177417721e+01 -1.4624446441e+01 9.1021532441e+01 4.7000000000e+00 0.0000e+00 1.0000e+00
       13  1    4    4    0    0 +2.5340245836e+01 +4.4032423717e+00 +8.8063340731e+00 2.7185807367e+01 0.0000000000e+00 0.0000e+00 -1.0000e+00
      -14  1    4    4    0    0 +8.8932835632e+01 +3.2023941898e+01 -1.4793415879e+02 1.7555368821e+02 0.0000000000e+00 0.0000e+00 1.0000e+00
       21  1    1    2  504  502 -2.1899598669e+01 +1.3152797820e+01 -5.6690682890e+02 5.6748210647e+02 0.0000000000e+00 0.0000e+00 1.0000e+00
        2  1    1    2  502    0 -5.2962120755e+01 -3.2018315719e+01 -2.4124445516e+03 2.4132382545e+03 0.0000000000e+00 0.0000e+00 -1.0000e+00
<mgrwt>
<rscale>  4 0.21545920E+03</rscale>
<asrwt>0</asrwt>
<pdfrwt beam="1">  1       21 0.33271656E-01 0.21611612E+03</pdfrwt>
<pdfrwt beam="2">  1        2 0.50414430E+00 0.21611612E+03</pdfrwt>
<totfact> 0.15894562E+02</totfact>
</mgrwt>
</event>
<event>
12      1 +1.4674046e+01 2.27457800e+02 7.54677100e-03 1.12844200e-01
        2 -1    0    0  502    0 +0.0000000000e+00 +0.0000000000e+00 +2.9584749733e+02 2.9584749733e+02 0.0000000000e+00 0.0000e+00 -1.0000e+00
       -2 -1    0    0    0  501 -0.0000000000e+00 -0.0000000000e+00 -1.7705977020e+02 1.7705977020e+02 0.0000000000e+00 0.0000e+00 1.0000e+00
        6  2    1    2  502    0 +5.2347063647e+00 -1.4748086276e+02 +3.3217832719e+01 2.3015227001e+02 1.7346076199e+02 0.0000e+00 0.0000e+00
       24  2    3    3    0    0 -1.6572835762e+01 -1.7196402835e+02 +1.4382751524e+01 1.9204919173e+02 8.2642256576e+01 0.0000e+00 0.0000e+00
       -6  2    1    2    0  501 -5.2347063647e+00 +1.4748086276e+02 +8.5569894408e+01 2.4275499752e+02 1.7271298434e+02 0.0000e+00 0.0000e+00
      -24  2    5    5    0    0 -2.1056170113e+01 +1.4999460050e+01 +6.8654808173e+01 1.0818215137e+02 7.9508169946e+01 0.0000e+00 0.0000e+00
        5  1    3    3  502    0 +2.1807542127e+01 +2.4483165592e+01 +1.8835081195e+01 3.8103078283e+01 4.7000000000e+00 0.0000e+00 -1.0000e+00
      -13  1    4    4    0    0 +2.7734048214e+01 -8.9264342089e+01 -1.2858056163e+01 9.4353748242e+01 0.0000000000e+00 0.0000e+00 1.0000e+00
       14  1    4    4    0    0 -4.4306883976e+01 -8.2699686259e+01 +2.7240807687e+01 9.7695443489e+01 0.0000000000e+00 0.0000e+00 -1.0000e+00
       -5  1    5    5    0  501 +1.5821463749e+01 +1.3248140271e+02 +1.6915086235e+01 1.3457284615e+02 4.7000000000e+00 0.0000e+00 1.0000e+00
       13  1    6    6    0    0 -4.8996594705e+01 +2.1009252887e+01 +3.3860922775e+01 6.3155499291e+01 0.0000000000e+00 0.0000e+00 -1.0000e+00
      -14  1    6    6    0    0 +2.7940424592e+01 -6.0097928375e+00 +3.4793885398e+01 4.5026652078e+01 0.0000000000e+00 0.0000e+00 1.0000e+00
<mgrwt>
<rscale>  2 0.22745780E+03</rscale>
<asrwt>0</asrwt>
<pdfrwt beam="1">  1        2 0.45515000E-01 0.22745780E+03</pdfrwt>
<pdfrwt beam="2">  1       -2 0.27239965E-01 0.22745780E+03</pdfrwt>
<totfact> 0.13481809E+03</totfact>
</mgrwt>
</event>
<event>
13      2 +1.4674046e+01 1.90004300e+02 7.54677100e-03 1.15944300e-01
       21 -1    0    0  502  503 +0.0000000000e+00 +0.0000000000e+00 +1.9963037895e+02 1.9963037895e+02 0.0000000000e+00 0.0000e+00 1.0000e+00
       -1 -1    0    0    0  501 -0.0000000000e+00 -0.0000000000e+00 -1.0640652106e+03 1.0640652106e+03 0.0000000000e+00 0.0000e+00 -1.0000e+00
       -6  2    1    2    0  501 -1.1779348516e+02 -2.5654159766e+01 -1.7849464840e+00 2.1019530306e+02 1.7217850718e+02 0.0000e+00 0.0000e+00
      -24  2    3    3    0    0 -6.6301789166e+00 +1.2792173516e+01 +3.9042196611e+01 8.5598566299e+01 7.4801219646e+01 0.0000e+00 0.0000e+00
        6  2    1    2  502    0 +2.9466478211e+01 -2.0921086612e+01 +4.5817877858e+00 1.8053883929e+02 1.7682566134e+02 0.0000e+00 0.0000e+00
       24  2    5    5    0    0 +8.5416038082e+01 -2.2844171892e+01 -1.5119498447e+01 1.2100496502e+02 8.1214817453e+01 0.0000e+00 0.0000e+00
        5  1    5    5  502    0 -5.5949559872e+01 +1.9230852800e+00 +1.9701286233e+01 5.9533874274e+01 4.7000000000e+00 0.0000e+00 -1.0000e+00
      -13  1    6    6    0    0 +5.7922968933e+01 +2.6280040654e+01 -1.1100878240e+01 6.4567332023e+01 0.0000000000e+00 0.0000e+00 1.0000e+00
       14  1    6    6    0    0 +2.7493069149e+01 -4.9124212545e+01 -4.0186202065e+00 5.6437632993e+01 0.0000000000e+00 0.0000e+00 -1.0000e+00
       -5  1    3    3    0  501 -1.1116330624e+02 -3.8446333283e+01 -4.0827143095e+01 1.2459673676e+02 4.7000000000e+00 0.0000e+00 1.0000e+00
       13  1    4    4    0    0 +1.2733314399e+00 +2.7069190061e+01 -1.3717211000e+01 3.0373085144e+01 0.0000000000e+00 0.0000e+00 -1.0000e+00
      -14  1    4    4    0    0 -7.9035103565e+00 -1.4277016545e+01 +5.2759407611e+01 5.5225481156e+01 0.0000000000e+00 0.0000e+00 1.0000e+00
       -1  1    1    2    0  503 +8.8327006948e+01 +4.6575246378e+01 -8.6723167297e+02 8.7296144722e+02 0.0000000000e+00 0.0000e+00 -1.0000e+00
<mgrwt>
<rscale>  3 0.18891574E+03</rscale>
<asrwt>0</asrwt>
<pdfrwt beam="1">  1       21 0.30712366E-01 0.19000432E+03</pdfrwt>
<pdfrwt beam="2">  1       -1 0.16370234E+00 0.19000432E+03</pdfrwt>
<totfact> 0.28897929E+02</totfact>
</mgrwt>
</event>
<event>
13      2 +1.4674046e+01 2.49997500e+02 7.54677100e-03 1.11341000e-01
       21 -1    0    0  501  502 +0.0000000000e+00 +0.0000000000e+00 +8.8070467355e+02 8.8070467355e+02 0.0000000000e+00 0.0000e+00 1.0000e+00
       21 -1    0    0  504  503 -0.0000000000e+00 -0.0000000000e+00 -1.5180815316e+02 1.5180815316e+02 0.0000000000e+00 0.0000e+00 -1.0000e+00
       -6  2    1    2    0  503 +1.3674602728e+02 +9.8388140956e+01 +4.3198080537e+01 2.4581920053e+02 1.7372766887e+02 0.0000e+00 0.0000e+00
      -24  2    3    3    0    0 +3.1070292904e+01 -8.3751681847e-01 -2.0126839291e+01 8.7562360340e+01 7.9347418060e+01 0.0000e+00 0.0000e+00
        6  2    1    2  501    0 -1.8755219233e+02 -1.2363671988e+01 +6.1023299843e+02 6.6148776163e+02 1.7278038423e+02 0.0000e+00 0.0000e+00
       24  2    5    5    0    0 -2.0726092103e+02 -2.2463402156e+01 +4.8496334549e+02 5.3418884378e+02 8.1893714836e+01 0.0000e+00 0.0000e+00
        5  1    5    5  501    0 +1.9708728696e+01 +1.0099730168e+01 +1.2526965295e+02 1.2729891785e+02 4.7000000000e+00 0.0000e+00 -1.0000e+00
      -13  1    6    6    0    0 -4.4060889018e+01 +2.5537143259e+01 +7.8605253814e+01 9.3660522922e+01 0.0000000000e+00 0.0000e+00 1.0000e+00
       14  1    6    6    0    0 -1.6320003201e+02 -4.8000545416e+01 +4.0635809167e+02 4.4052832086e+02 0.0000000000e+00 0.0000e+00 -1.0000e+00
       -5  1    3    3    0  503 +1.0567573438e+02 +9.9225657775e+01 +6.3324919828e+01 1.5825684019e+02 4.7000000000e+00 0.0000e+00 1.0000e+00
       13  1    4    4    0    0 -1.1718798635e+01 +2.7371988261e+01 +5.4720554665e+00 3.0273740664e+01 0.0000000000e+00 0.0000e+00 -1.0000e+00
      -14  1    4    4    0    0 +4.2789091538e+01 -2.8209505079e+01 -2.5598894757e+01 5.7288619675e+01 0.0000000000e+00 0.0000e+00 1.0000e+00
       21  1    1    2  504  502 +5.0806165054e+01 -8.6024468968e+01 +7.5465441423e+01 1.2520586455e+02 0.0000000000e+00 0.0000e+00 1.0000e+00
<mgrwt>
<rscale>  3 0.24983300E+03</rscale>
<asrwt>0</asrwt>
<pdfrwt beam="1">  1       21 0.13549302E+00 0.24999750E+03</pdfrwt>
<pdfrwt beam="2">  1       21 0.23355101E-01 0.24999750E+03</pdfrwt>
<totfact> 0.64410828E+03</totfact>
</mgrwt>
</event>
<event>
14      3 +1.4674046e+01 1.97474100e+02 7.54677100e-03 1.15207300e-01
       21 -1    0    0  503  502 +0.0000000000e+00 +0.0000000000e+00 +1.8217879714e+03 1.8217879714e+03 0.0000000000e+00 0.0000e+00 -1.0000e+00
       21 -1    0    0  504  503 -0.0000000000e+00 -0.0000000000e+00 -1.0497662858e+02 1.0497662858e+02 0.0000000000e+00 0.0000e+00 -1.0000e+00
        6  2    1    2  501    0 +8.7599758697e+00 -1.0605092557e+02 +1.2355906905e+03 1.2523437654e+03 1.7423264978e+02 0.0000e+00 0.0000e+00
       24  2    3    3    0    0 -4.5031756095e+01 -1.1595982893e+02 +8.8638687583e+02 8.9885100595e+02 8.2321906341e+01 0.0000e+00 0.0000e+00
       -6  2    1    2    0  502 -8.7829459901e+00 +6.7714977193e+01 +5.4848599957e+02 5.7923883647e+02 1.7325784159e+02 0.0000e+00 0.0000e+00
      -24  2    5    5    0    0 +1.3248888364e+00 +7.3714176267e+01 +1.7871369901e+02 2.0924991370e+02 8.0071249861e+01 0.0000e+00 0.0000e+00
        5  1    3    3  501    0 +5.3791731965e+01 +9.9089033571e+00 +3.4920381468e+02 3.5349275945e+02 4.7000000000e+00 0.0000e+00 -1.0000e+00
      -13  1    4    4    0    0 -4.7588028322e+01 -1.7912659088e+01 +2.7886403994e+02 2.8346187851e+02 0.0000000000e+00 0.0000e+00 1.0000e+00
       14  1    4    4    0    0 +2.5562722272e+00 -9.8047169842e+01 +6.0752283589e+02 6.1538912744e+02 0.0000000000e+00 0.0000e+00 -1.0000e+00
       -5  1    5    5    0  502 -1.0107834827e+01 -5.9991990731e+00 +3.6977230056e+02 3.6998892278e+02 4.7000000000e+00 0.0000e+00 1.0000e+00
       13  1    6    6    0    0 +2.2839996361e+01 +7.1735498603e+01 +1.7005410400e+02 1.8597323861e+02 0.0000000000e+00 0.0000e+00 -1.0000e+00
      -14  1    6    6    0    0 -2.1515107525e+01 +1.9786776637e+00 +8.6595950127e+00 2.3276675082e+01 0.0000000000e+00 0.0000e+00 1.0000e+00
       21  1    1    2  504  505 -1.6345726647e+01 +1.6226062661e+01 -6.3335233560e+01 6.7393024113e+01 0.0000000000e+00 0.0000e+00 -1.0000e+00
       21  1    1    2  505  501 +1.6368696767e+01 +2.2109885719e+01 -3.9301137316e+00 2.7788973970e+01 0.0000000000e+00 0.0000e+00 -1.0000e+00
<mgrwt>
<rscale>  4 0.19725882E+03</rscale>
<asrwt>0</asrwt>
<pdfrwt beam="1">  1       21 0.28027505E+00 0.19747406E+03</pdfrwt>
<pdfrwt beam="2">  1       21 0.16150252E-01 0.19747406E+03</pdfrwt>
<totfact> 0.15107000E+03</totfact>
</mgrwt>
</event>
<event>
11      1 +1.4674046e+01 2.80688300e+02 7.54677100e-03 1.10264000e-01
       21 -1    0    0  503  502 +0.0000000000e+00 +0.0000000000e+00 +7.6619414181e+02 7.6619414181e+02 0.0000000000e+00 0.0000e+00 -1.0000e+00
       21 -1    0    0  501  503 -0.0000000000e+00 -0.0000000000e+00 -1.2197611568e+02 1.2197611568e+02 0.0000000000e+00 0.0000e+00 -1.0000e+00
        6  2    1    2  501    0 -7.8812141877e+01 -1.3283900707e+02 +5.9415833999e+01 2.3949502949e+02 1.7311866541e+02 0.0000e+00 0.0000e+00
       24  2    3    3    0    0 -1.1532690368e+02 -9.4204674193e+01 +1.2501088135e+01 1.6843855275e+02 7.7720354446e+01 0.0000e+00 0.0000e+00
      -24  2    1    2    0    0 +1.0498463787e+02 +1.4292765890e+02 +2.7077285441e+02 3.3336063050e+02 7.9757641742e+01 0.0000e+00 0.0000e+00
        5  1    3    3  501    0 +3.6514761807e+01 -3.8634332873e+01 +4.6914745863e+01 7.1056476734e+01 4.7000000000e+00 0.0000e+00 -1.0000e+00
      -13  1    4    4    0    0 -1.1926269768e+01 +5.9255918983e+00 -1.6913508673e+01 2.1527083536e+01 0.0000000000e+00 0.0000e+00 1.0000e+00
       14  1    4    4    0    0 -1.0340063392e+02 -1.0013026609e+02 +2.9414596808e+01 1.4691146922e+02 0.0000000000e+00 0.0000e+00 -1.0000e+00
       -5  1    1    2    0  502 -2.6172495991e+01 -1.0088651833e+01 +3.1402933774e+02 3.1531459751e+02 4.7000000000e+00 0.0000e+00 1.0000e+00
       13  1    5    5    0    0 +4.0107505265e+01 +5.5054747185e+01 +1.7609994739e+02 1.8881427022e+02 0.0000000000e+00 0.0000e+00 -1.0000e+00
      -14  1    5    5    0    0 +6.4877132604e+01 +8.7872911714e+01 +9.4672907013e+01 1.4454636028e+02 0.0000000000e+00 0.0000e+00 1.0000e+00
<mgrwt>
<rscale>  2 0.26763564E+03</rscale>
<asrwt>0</asrwt>
<pdfrwt beam="1">  1       21 0.11787602E+00 0.28068835E+03</pdfrwt>
<pdfrwt beam="2">  1       21 0.18765557E-01 0.28068835E+03</pdfrwt>
<totfact> 0.13630632E+04</totfact>
</mgrwt>
</event>
<event>
13      2 +1.4674046e+01 1.86665400e+02 7.54677100e-03 1.16157900e-01
       21 -1    0    0  501  502 +0.0000000000e+00 +0.0000000000e+00 +8.9126297137e+02 8.9126297137e+02 0.0000000000e+00 0.0000e+00 1.0000e+00
       21 -1    0    0  504  503 -0.0000000000e+00 -0.0000000000e+00 -1.0267937165e+02 1.0267937165e+02 0.0000000000e+00 0.0000e+00 1.0000e+00
       -6  2    1    2    0  503 +4.6260676570e+01 +7.4698939432e+01 +5.6461485346e+02 5.9710635722e+02 1.7328037205e+02 0.0000e+00 0.0000e+00
      -24  2    3    3    0    0 -3.4283135885e+01 +3.9453887602e+01 +4.0954122961e+02 4.1878238739e+02 7.0162144944e+01 0.0000e+00 0.0000e+00
        6  2    1    2  501    0 -5.9240408705e+01 -3.2915910807e+01 +1.8379078096e+01 1.8664224997e+02 1.7292962659e+02 0.0000e+00 0.0000e+00
       24  2    5    5    0    0 +1.6878082649e+01 -5.1032329536e+01 -2.1996415896e+01 9.8469125556e+01 7.9518287480e+01 0.0000e+00 0.0000e+00
        5  1    5    5  501    0 -7.6118491354e+01 +1.8116418729e+01 +4.0375493992e+01 8.8173124413e+01 4.7000000000e+00 0.0000e+00 -1.0000e+00
      -13  1    6    6    0    0 +4.0472700742e+01 -2.5488241386e+01 -3.7124959018e+01 6.0547110059e+01 0.0000000000e+00 0.0000e+00 1.0000e+00
       14  1    6    6    0    0 -2.3594618093e+01 -2.5544088150e+01 +1.5128543122e+01 3.7922015497e+01 0.0000000000e+00 0.0000e+00 -1.0000e+00
       -5  1    3    3    0  503 +8.0543812455e+01 +3.5245051830e+01 +1.5507362384e+02 1.7832396983e+02 4.7000000000e+00 0.0000e+00 1.0000e+00
       13  1    4    4    0    0 -1.8186607932e+01 -3.2492344574e+00 +2.2742110347e+01 2.9300406408e+01 0.0000000000e+00 0.0000e+00 -1.0000e+00
      -14  1    4    4    0    0 -1.6096527952e+01 +4.2703122059e+01 +3.8679911927e+02 3.8948198098e+02 0.0000000000e+00 0.0000e+00 1.0000e+00
       21  1    1    2  504  502 +1.2979732135e+01 -4.1783028624e+01 +2.0558966817e+02 2.1019373584e+02 0.0000000000e+00 0.0000e+00 1.0000e+00
<mgrwt>
<rscale>  3 0.18658397E+03</rscale>
<asrwt>0</asrwt>
<pdfrwt beam="1">  1       21 0.13711738E+00 0.18666541E+03</pdfrwt>
<pdfrwt beam="2">  1       21 0.15796827E-01 0.18666541E+03</pdfrwt>
<totfact> 0.13532385E+04</totfact>
</mgrwt>
</event>
<event>
13      2 +1.4674046e+01 4.03850400e+02 7.54677100e-03 1.04246100e-01
       21 -1    0    0  503  502 +0.0000000000e+00 +0.0000000000e+00 +1.5758362335e+03 1.5758362335e+03 0.0000000000e+00 0.0000e+00 1.0000e+00
       21 -1    0    0  501  503 -0.0000000000e+00 -0.0000000000e+00 -1.3106355582e+02 1.3106355582e+02 0.0000000000e+00 0.0000e+00 -1.0000e+00
        6  2    1    2  501    0 -1.6944143999e+02 +3.1126724545e+02 +7.2415461540e+02 8.2461131411e+02 1.7316527562e+02 0.0000e+00 0.0000e+00
       24  2    3    3    0    0 -1.8571990692e+02 +3.1492559275e+02 +7.0853270353e+02 8.0127665917e+02 7.9722517306e+01 0.0000e+00 0.0000e+00
       -6  2    1    2    0  504 +1.2408822033e+02 -3.5288448645e+02 +4.7450230878e+02 6.2859205544e+02 1.7334988872e+02 0.0000e+00 0.0000e+00
      -24  2    5    5    0    0 +7.4346700544e+01 -8.1099086259e+01 +1.3520130371e+02 1.9099774036e+02 7.8078490142e+01 0.0000e+00 0.0000e+00
        5  1    3    3  501    0 +1.6278466929e+01 -3.6583473061e+00 +1.5621911862e+01 2.3334654932e+01 4.7000000000e+00 0.0000e+00 -1.0000e+00
      -13  1    4    4    0    0 -1.1121802399e+02 +2.3879928204e+02 +5.5582507473e+02 6.1509028578e+02 0.0000000000e+00 0.0000e+00 1.0000e+00
       14  1    4    4    0    0 -7.4501882932e+01 +7.6126310715e+01 +1.5270762880e+02 1.8618637340e+02 0.0000000000e+00 0.0000e+00 -1.0000e+00
       -5  1    5    5    0  504 +4.9741519781e+01 -2.7178540020e+02 +3.3930100507e+02 4.3759431508e+02 4.7000000000e+00 0.0000e+00 1.0000e+00
       13  1    6    6    0    0 +4.2187790495e+00 -5.8482425535e+01 +4.1693878001e+01 7.1947005885e+01 0.0000000000e+00 0.0000e+00 -1.0000e+00
      -14  1    6    6    0    0 +7.0127921495e+01 -2.2616660725e+01 +9.3507425714e+01 1.1905073448e+02 0.0000000000e+00 0.0000e+00 1.0000e+00
       21  1    1    2  504  502 +4.5353219663e+01 +4.1617241008e+01 +2.4611575347e+02 2.5369641974e+02 0.0000000000e+00 0.0000e+00 1.0000e+00
<mgrwt>
<rscale>  3 0.40383065E+03</rscale>
<asrwt>0</asrwt>
<pdfrwt beam="1">  1       21 0.24243633E+00 0.40385045E+03</pdfrwt>
<pdfrwt beam="2">  1       21 0.20163625E-01 0.40385045E+03</pdfrwt>
<totfact> 0.14206481E+03</totfact>
</mgrwt>
</event>
<event>
13      2 +1.4674046e+01 1.78156700e+02 7.54677100e-03 1.17084000e-01
       21 -1    0    0  501  502 +0.0000000000e+00 +0.0000000000e+00 +2.2140472159e+02 2.2140472159e+02 0.0000000000e+00 0.0000e+00 -1.0000e+00
       21 -1    0    0  504  503 -0.0000000000e+00 -0.0000000000e+00 -2.6728580946e+02 2.6728580946e+02 0.0000000000e+00 0.0000e+00 -1.0000e+00
       -6  2    1    2    0  503 +5.0480061384e+01 -3.9179619827e+01 -1.4199505860e+02 2.2867909901e+02 1.6747613099e+02 0.0000e+00 0.0000e+00
      -24  2    3    3    0    0 +9.4928737134e+01 -1.1070565241e+01 -8.4164851020e+01 1.5037056414e+02 7.9959751527e+01 0.0000e+00 0.0000e+00
        6  2    1    2  501    0 -3.2072559278e+01 +2.2612500295e+01 +1.2885597560e+02 2.1895848492e+02 1.7262381482e+02 0.0000e+00 0.0000e+00
       24  2    5    5    0    0 +1.6294027995e+01 -4.3360566320e+01 +7.5230966125e+01 1.2103247242e+02 8.2725613062e+01 0.0000e+00 0.0000e+00
        5  1    5    5  501    0 -4.8366587273e+01 +6.5973066614e+01 +5.3625009479e+01 9.7926012502e+01 4.7000000000e+00 0.0000e+00 -1.0000e+00
      -13  1    6    6    0    0 -2.8392999688e+01 -2.3573229470e+01 +7.7425139987e+00 3.7706844232e+01 0.0000000000e+00 0.0000e+00 1.0000e+00
       14  1    6    6    0    0 +4.4687027683e+01 -1.9787336850e+01 +6.7488452126e+01 8.3325628189e+01 0.0000000000e+00 0.0000e+00 -1.0000e+00
       -5  1    3    3    0  503 -4.4448675750e+01 -2.8109054586e+01 -5.7830207577e+01 7.8308534873e+01 4.7000000000e+00 0.0000e+00 1.0000e+00
       13  1    4    4    0    0 +2.3457396040e+01 -3.1081446710e+00 -7.4062850355e+01 7.7750985813e+01 0.0000000000e+00 0.0000e+00 -1.0000e+00
      -14  1    4    4    0    0 +7.1471341094e+01 -7.9624205703e+00 -1.0102000666e+01 7.2619578328e+01 0.0000000000e+00 0.0000e+00 1.0000e+00
       21  1    1    2  504  502 -1.8407502106e+01 +1.6567119533e+01 -3.2742004878e+01 4.1052947115e+01 0.0000000000e+00 0.0000e+00 -1.0000e+00
<mgrwt>
<rscale>  3 0.17689763E+03</rscale>
<asrwt>0</asrwt>
<pdfrwt beam="1">  1       21 0.34062265E-01 0.17815670E+03</pdfrwt>
<pdfrwt beam="2">  1       21 0.41120894E-01 0.17815670E+03</pdfrwt>
<totfact> 0.47629426E+04</totfact>
</mgrwt>
</event>
<event>
13      2 +1.4674046e+01 1.85774300e+02 7.54677100e-03 1.16347300e-01
       21 -1    0    0  501  502 +0.0000000000e+00 +0.0000000000e+00 +9.1292299613e+02 9.1292299613e+02 0.0000000000e+00 0.0000e+00 1.0000e+00
       21 -1    0    0  504  503 -0.0000000000e+00 -0.0000000000e+00 -1.2591545260e+02 1.2591545260e+02 0.0000000000e+00 0.0000e+00 1.0000e+00
       -6  2    1    2    0  503 -1.0016942981e+02 -9.2970619957e+00 +3.5945216178e+01 2.0229995558e+02 1.7179308319e+02 0.0000e+00 0.0000e+00
      -24  2    3    3    0    0 +1.1645074446e+01 +6.5732392859e+00 -5.7436442195e+00 8.1824228129e+01 8.0519560521e+01 0.0000e+00 0.0000e+00
        6  2    1    2  501    0 -4.4352276815e+01 +2.7785711843e+01 +2.2652192426e+02 2.9213883451e+02 1.7690038500e+02 0.0000e+00 0.0000e+00
       24  2    5    5    0    0 -2.2852244313e+01 -1.3140458281e+01 +4.9661728627e+01 1.0927598536e+02 9.3701958208e+01 0.0000e+00 0.0000e+00
        5  1    5    5  501    0 -2.1500032502e+01 +4.0926170124e+01 +1.7686019564e+02 1.8286284915e+02 4.7000000000e+00 0.0000e+00 -1.0000e+00
      -13  1    6    6    0    0 +1.5499824479e+01 -4.3745797422e+01 +1.3534819740e+01 4.8343879616e+01 0.0000000000e+00 0.0000e+00 1.0000e+00
       14  1    6    6    0    0 -3.8352068792e+01 +3.0605339141e+01 +3.6126908887e+01 6.0932105743e+01 0.0000000000e+00 0.0000e+00 -1.0000e+00
       -5  1    3    3    0  503 -1.1181450425e+02 -1.5870301282e+01 +4.1688860397e+01 1.2047572745e+02 4.7000000000e+00 0.0000e+00 1.0000e+00
       13  1    4    4    0    0 +2.6083556421e+01 -4.2990512350e+00 -3.7145730870e+01 4.5592094478e+01 0.0000000000e+00 0.0000e+00 -1.0000e+00
      -14  1    4    4    0    0 -1.4438481974e+01 +1.0872290521e+01 +3.1402086650e+01 3.6232133651e+01 0.0000000000e+00 0.0000e+00 1.0000e+00
       21  1    1    2  504  502 +1.4452170662e+02 -1.8488649848e+01 +5.2454040309e+02 5.4439965864e+02 0.0000000000e+00 0.0000e+00 1.0000e+00
<mgrwt>
<rscale>  3 0.18454810E+03</rscale>
<asrwt>0</asrwt>
<pdfrwt beam="1">  1       21 0.14044969E+00 0.18577434E+03</pdfrwt>
<pdfrwt beam="2">  1       21 0.19371609E-01 0.18577434E+03</pdfrwt>
<totfact> 0.87399943E+03</totfact>
</mgrwt>
</event>
<event>
14      3 +1.4674046e+01 1.76644300e+02 7.54677100e-03 1.17109100e-01
        2 -1    0    0  501    0 +0.0000000000e+00 +0.0000000000e+00 +2.5583427536e+03 2.5583427536e+03 0.0000000000e+00 0.0000e+00 -1.0000e+00
        2 -1    0    0  502    0 -0.0000000000e+00 -0.0000000000e+00 -1.7253734513e+03 1.7253734513e+03 0.0000000000e+00 0.0000e+00 1.0000e+00
        6  2    1    2  501    0 -3.7511601109e+01 +1.5611306685e+01 -8.0894513426e+02 8.2803569990e+02 1.7204667084e+02 0.0000e+00 0.0000e+00
       24  2    3    3    0    0 -4.4587138467e+00 -5.4928363171e+01 -5.0598388699e+02 5.1518438421e+02 7.9738639510e+01 0.0000e+00 0.0000e+00
       -6  2    1    2    0  503 +4.5377431672e+01 +1.4779235206e+01 -8.9279154818e+02 9.1032855285e+02 1.7130028762e+02 0.0000e+00 0.0000e+00
      -24  2    5    5    0    0 -1.2330456076e+01 -1.8425100261e+01 -2.3354379091e+02 2.4771069642e+02 7.9538433353e+01 0.0000e+00 0.0000e+00
        5  1    3    3  501    0 -3.3052887262e+01 +7.0539669856e+01 -3.0296124727e+02 3.1285131569e+02 4.7000000000e+00 0.0000e+00 -1.0000e+00
      -13  1    4    4    0    0 -3.5260651215e+01 -4.9383300254e+01 -2.4830446259e+02 2.5561128694e+02 0.0000000000e+00 0.0000e+00 1.0000e+00
       14  1    4    4    0    0 +3.0801937368e+01 -5.5450629170e+00 -2.5767942440e+02 2.5957309728e+02 0.0000000000e+00 0.0000e+00 -1.0000e+00
       -5  1    5    5    0  503 +5.7707887748e+01 +3.3204335467e+01 -6.5924775727e+02 6.6261785643e+02 4.7000000000e+00 0.0000e+00 1.0000e+00
       13  1    6    6    0    0 +5.3684108827e+00 -3.7587810057e+01 -5.2466665089e+01 6.4764297617e+01 0.0000000000e+00 0.0000e+00 -1.0000e+00
      -14  1    6    6    0    0 -1.7698866959e+01 +1.9162709795e+01 -1.8107712582e+02 1.8294639880e+02 0.0000000000e+00 0.0000e+00 1.0000e+00
        2  1    1    2  502    0 +3.1833104262e+01 -3.3455717029e+01 +2.4621951216e+03 2.4626281588e+03 0.0000000000e+00 0.0000e+00 -1.0000e+00
        2  1    1    2  503    0 -3.9698934825e+01 +3.0651751383e+00 +7.2510863101e+01 8.2723793388e+01 0.0000000000e+00 0.0000e+00 1.0000e+00
<mgrwt>
<rscale>  4 0.17664432E+03</rscale>
<asrwt>0</asrwt>
<pdfrwt beam="1">  1        2 0.39359119E+00 0.17664432E+03</pdfrwt>
<pdfrwt beam="2">  1        2 0.26544207E+00 0.17664432E+03</pdfrwt>
<totfact> 0.66459226E+00</totfact>
</mgrwt>
</event>
<event>
13      3 +1.4674046e+01 8.53535300e+02 7.54677100e-03 9.77384700e-02
       21 -1    0    0  502  503 +0.0000000000e+00 +0.0000000000e+00 +7.5076417582e+02 7.5076417582e+02 0.0000000000e+00 0.0000e+00 -1.0000e+00
        2 -1    0    0  501    0 -0.0000000000e+00 -0.0000000000e+00 -1.4079988319e+03 1.4079988319e+03 0.0000000000e+00 0.0000e+00 -1.0000e+00
       24  2    1    2    0    0 -3.1502859731e+02 +1.3091322170e+02 -6.9064217252e+02 7.7472733184e+02 8.2671273696e+01 0.0000e+00 0.0000e+00
       -6  2    1    2    0  504 +1.2403666511e+02 -2.2889722313e+02 +7.5965373305e+01 3.2235195156e+02 1.7424410947e+02 0.0000e+00 0.0000e+00
      -24  2    4    4    0    0 +1.3984962377e+02 -2.2920210038e+02 +4.0396044818e+01 2.8314213467e+02 8.0287657222e+01 0.0000e+00 0.0000e+00
        5  1    1    2  501    0 +1.8507796334e+02 +9.6238006590e+01 +1.2898706720e+02 2.4530666507e+02 4.7000000000e+00 0.0000e+00 -1.0000e+00
      -13  1    3    3    0    0 -2.6380470111e+02 +1.0678321744e+02 -4.9421355979e+02 5.7030046338e+02 0.0000000000e+00 0.0000e+00 1.0000e+00
       14  1    3    3    0    0 -5.1223896204e+01 +2.4130004263e+01 -1.9642861273e+02 2.0442686846e+02 0.0000000000e+00 0.0000e+00 -1.0000e+00
       -5  1    4    4    0  504 -1.5812958660e+01 +3.0487724674e-01 +3.5569328486e+01 3.9209816892e+01 4.7000000000e+00 0.0000e+00 1.0000e+00
       13  1    5    5    0    0 -3.1937916905e+00 -2.7983907980e+01 +2.1697919058e+01 3.5554171381e+01 0.0000000000e+00 0.0000e+00 -1.0000e+00
      -14  1    5    5    0    0 +1.4304341546e+02 -2.0121819240e+02 +1.8698125761e+01 2.4758796329e+02 0.0000000000e+00 0.0000e+00 1.0000e+00
       21  1    1    2  504  503 +1.3345579782e+01 -2.0311073839e+01 +3.2168325669e+02 3.2260000287e+02 0.0000000000e+00 0.0000e+00 -1.0000e+00
        2  1    1    2  502    0 -7.4316109165e+00 +2.2057068679e+01 -4.9322818074e+02 4.9377705637e+02 0.0000000000e+00 0.0000e+00 -1.0000e+00
<mgrwt>
<rscale>  4 0.66785161E+03</rscale>
<asrwt>0</asrwt>
<pdfrwt beam="1">  1       21 0.11550218E+00 0.85353528E+03</pdfrwt>
<pdfrwt beam="2">  1        2 0.21661520E+00 0.85353528E+03</pdfrwt>
<totfact> 0.87401222E+01</totfact>
</mgrwt>
</event>
<event>
14      3 +1.4674046e+01 3.54738800e+02 7.54677100e-03 1.06077900e-01
       21 -1    0    0  501  503 +0.0000000000e+00 +0.0000000000e+00 +9.1498982584e+02 9.1498982584e+02 0.0000000000e+00 0.0000e+00 -1.0000e+00
       21 -1    0    0  503  504 -0.0000000000e+00 -0.0000000000e+00 -9.2493649158e+02 9.2493649158e+02 0.0000000000e+00 0.0000e+00 1.0000e+00
       -6  2    1    2    0  502 +3.3606810820e+02 +1.9612354126e+02 +6.3642105160e+02 7.6568661567e+02 1.7273685681e+02 0.0000e+00 0.0000e+00
      -24  2    3    3    0    0 +3.2211148840e+02 +1.7871018570e+02 +4.8238589718e+02 6.0997235496e+02 6.0638095202e+01 0.0000e+00 0.0000e+00
        6  2    1    2  501    0 -1.1857911210e+02 -1.6556130818e+02 +8.3851662089e+01 2.7873756962e+02 1.7085660330e+02 0.0000e+00 0.0000e+00
       24  2    5    5    0    0 -2.1315208684e+01 -9.0956719855e+01 +6.2263119790e+01 1.5418129052e+02 1.0567739234e+02 0.0000e+00 0.0000e+00
        5  1    5    5  501    0 -9.7263903412e+01 -7.4604588321e+01 +2.1588542300e+01 1.2455627910e+02 4.7000000000e+00 0.0000e+00 -1.0000e+00
      -13  1    6    6    0    0 -3.9286725088e+01 -6.3311809361e+01 -9.5886180627e+00 7.5125052873e+01 0.0000000000e+00 0.0000e+00 1.0000e+00
       14  1    6    6    0    0 +1.7971516405e+01 -2.7644910493e+01 +7.1851737852e+01 7.9056237644e+01 0.0000000000e+00 0.0000e+00 -1.0000e+00
       -5  1    3    3    0  502 +1.3956619806e+01 +1.7413355559e+01 +1.5403515442e+02 1.5571426070e+02 4.7000000000e+00 0.0000e+00 1.0000e+00
       13  1    4    4    0    0 +1.7069279264e+02 +8.0496995981e+01 +2.9163492933e+02 3.4737116724e+02 0.0000000000e+00 0.0000e+00 -1.0000e+00
      -14  1    4    4    0    0 +1.5141869575e+02 +9.8213189722e+01 +1.9075096785e+02 2.6260118772e+02 0.0000000000e+00 0.0000e+00 1.0000e+00
        4  1    1    2  502    0 -8.5578485178e+01 -4.2398764792e+01 -6.1046506532e+01 1.1334905532e+02 0.0000000000e+00 0.0000e+00 -1.0000e+00
       -4  1    1    2    0  504 -1.3191051093e+02 +1.1836531705e+01 -6.6917287290e+02 6.8215307682e+02 0.0000000000e+00 0.0000e+00 1.0000e+00
<mgrwt>
<rscale>  4 0.35451069E+03</rscale>
<asrwt>0</asrwt>
<pdfrwt beam="1">  1       21 0.14076767E+00 0.35473885E+03</pdfrwt>
<pdfrwt beam="2">  1       21 0.14229792E+00 0.35473885E+03</pdfrwt>
<totfact> 0.10304053E+02</totfact>
</mgrwt>
</event>
<event>
13      2 +1.4674046e+01 3.49919800e+02 7.54677100e-03 1.06272700e-01
       21 -1    0    0  503  502 +0.0000000000e+00 +0.0000000000e+00 +5.9644738363e+02 5.9644738363e+02 0.0000000000e+00 0.0000e+00 1.0000e+00
       21 -1    0    0  504  503 -0.0000000000e+00 -0.0000000000e+00 -2.4029407864e+02 2.4029407864e+02 0.0000000000e+00 0.0000e+00 -1.0000e+00
        6  2    1    2  501    0 -1.9574304789e+02 +2.3496371488e+02 +7.6058314263e+01 3.5880667098e+02 1.7156360881e+02 0.0000e+00 0.0000e+00
       24  2    3    3    0    0 -1.8475756753e+02 +1.5858271150e+02 +1.0626825517e+02 2.7580384581e+02 7.4101175189e+01 0.0000e+00 0.0000e+00
       -6  2    1    2    0  502 +2.2091234546e+02 -2.0864095649e+02 +2.6369433708e+02 4.3799280099e+02 1.7311752425e+02 0.0000e+00 0.0000e+00
      -24  2    5    5    0    0 +2.4231829329e+02 -1.8394408023e+02 +2.2280235001e+02 3.8543431066e+02 7.9781832189e+01 0.0000e+00 0.0000e+00
        5  1    3    3  501    0 -1.0985480356e+01 +7.6381003381e+01 -3.0209940907e+01 8.3002825167e+01 4.7000000000e+00 0.0000e+00 -1.0000e+00
      -13  1    4    4    0    0 -1.7150725146e+02 +1.6571967816e+02 +9.3850640396e+01 2.5629219991e+02 0.0000000000e+00 0.0000e+00 1.0000e+00
       14  1    4    4    0    0 -1.3250316070e+01 -7.1369666655e+00 +1.2417614774e+01 1.9511645902e+01 0.0000000000e+00 0.0000e+00 -1.0000e+00
       -5  1    5    5    0  502 -2.1405947823e+01 -2.4696876261e+01 +4.0891987069e+01 5.2558490330e+01 4.7000000000e+00 0.0000e+00 1.0000e+00
       13  1    6    6    0    0 +3.0058623804e+01 -6.3975040845e+01 +4.8688976419e+01 8.5830898520e+01 0.0000000000e+00 0.0000e+00 -1.0000e+00
      -14  1    6    6    0    0 +2.1225966948e+02 -1.1996903939e+02 +1.7411337359e+02 2.9960341214e+02 0.0000000000e+00 0.0000e+00 1.0000e+00
       21  1    1    2  504  501 -2.5169297576e+01 -2.6322758382e+01 +1.6400653647e+01 3.9941990303e+01 0.0000000000e+00 0.0000e+00 1.0000e+00
<mgrwt>
<rscale>  3 0.34972811E+03</rscale>
<asrwt>0</asrwt>
<pdfrwt beam="1">  1       21 0.91761136E-01 0.34991981E+03</pdfrwt>
<pdfrwt beam="2">  1       21 0.36968320E-01 0.34991981E+03</pdfrwt>
<totfact> 0.64894642E+03</totfact>
</mgrwt>
</event>
<event>
14      3 +1.4674046e+01 2.66190100e+02 7.54677100e-03 1.10351100e-01
       21 -1    0    0  504  502 +0.0000000000e+00 +0.0000000000e+00 +9.3050792533e+02 9.3050792533e+02 0.0000000000e+00 0.0000e+00 1.0000e+00
       21 -1    0    0  502  503 -0.0000000000e+00 -0.0000000000e+00 -1.9816886349e+03 1.9816886349e+03 0.0000000000e+00 0.0000e+00 -1.0000e+00
        6  2    1    2  501    0 -1.1324098924e+02 +2.0743145272e+02 -6.5062019300e+02 7.1361305837e+02 1.7345210384e+02 0.0000e+00 0.0000e+00
       24  2    3    3    0    0 -2.2035172605e-01 +1.3333515995e+02 -4.0034529238e+02 4.2914242548e+02 7.8157243897e+01 0.0000e+00 0.0000e+00
       -6  2    1    2    0  505 +5.2621162206e+01 -1.8311293361e+02 -6.3334117483e+02 6.8366067821e+02 1.7312292175e+02 0.0000e+00 0.0000e+00
      -24  2    5    5    0    0 -2.5214752154e+01 -1.3616314017e+02 -3.3359292998e+02 3.7039750936e+02 8.2060267753e+01 0.0000e+00 0.0000e+00
        5  1    3    3  501    0 -1.1302063751e+02 +7.4096292761e+01 -2.5027490061e+02 2.8447063290e+02 4.7000000000e+00 0.0000e+00 -1.0000e+00
      -13  1    4    4    0    0 +1.1873325514e+01 +2.3945111432e+01 -2.0526292300e+01 3.3699746228e+01 0.0000000000e+00 0.0000e+00 1.0000e+00
       14  1    4    4    0    0 -1.2093677240e+01 +1.0939004852e+02 -3.7981900008e+02 3.9544267925e+02 0.0000000000e+00 0.0000e+00 -1.0000e+00
       -5  1    5    5    0  505 +7.7835914360e+01 -4.6949793446e+01 -2.9974824485e+02 3.1326316885e+02 4.7000000000e+00 0.0000e+00 1.0000e+00
       13  1    6    6    0    0 +2.9962356716e+01 -4.0219465480e+01 -1.1114366791e+02 1.2193548761e+02 0.0000000000e+00 0.0000e+00 -1.0000e+00
      -14  1    6    6    0    0 -5.5177108870e+01 -9.5943674688e+01 -2.2244926207e+02 2.4846202175e+02 0.0000000000e+00 0.0000e+00 1.0000e+00
       21  1    1    2  504  501 +9.3065870639e+01 -6.2982756937e+01 +8.6923568270e+02 8.7646948379e+02 0.0000000000e+00 0.0000e+00 1.0000e+00
       21  1    1    2  505  503 -3.2446043607e+01 +3.8664237835e+01 -6.3645502445e+02 6.3845333986e+02 0.0000000000e+00 0.0000e+00 -1.0000e+00
<mgrwt>
<rscale>  4 0.26613644E+03</rscale>
<asrwt>0</asrwt>
<pdfrwt beam="1">  1       21 0.14315507E+00 0.26619005E+03</pdfrwt>
<pdfrwt beam="2">  1       21 0.30487517E+00 0.26619005E+03</pdfrwt>
<totfact> 0.95424975E+00</totfact>
</mgrwt>
</event>
<event>
12      1 +1.4674046e+01 2.73965800e+02 7.54677100e-03 1.09927500e-01
       21 -1    0    0  501  502 +0.0000000000e+00 +0.0000000000e+00 +2.2798214911e+02 2.2798214911e+02 0.0000000000e+00 0.0000e+00 -1.0000e+00
       21 -1    0    0  502  503 -0.0000000000e+00 -0.0000000000e+00 -3.3457408364e+02 3.3457408364e+02 0.0000000000e+00 0.0000e+00 1.0000e+00
       -6  2    1    2    0  503 +1.8770683227e+02 -9.8115470846e+01 -1.1233905401e+01 2.7246930034e+02 1.7103455352e+02 0.0000e+00 0.0000e+00
      -24  2    3    3    0    0 +4.7041978109e+01 -4.8530060420e+01 +4.3770823695e+01 1.1343180682e+02 7.9892273235e+01 0.0000e+00 0.0000e+00
        6  2    1    2  501    0 -1.8770683227e+02 +9.8115470846e+01 -9.5358029126e+01 2.9008693241e+02 1.7377219034e+02 0.0000e+00 0.0000e+00
       24  2    5    5    0    0 -1.2747561297e+02 -1.6473147594e+00 -2.3356061926e+01 1.5302203373e+02 8.1347966352e+01 0.0000e+00 0.0000e+00
        5  1    5    5  501    0 -6.0231219300e+01 +9.9762785605e+01 -7.2001967200e+01 1.3706489868e+02 4.7000000000e+00 0.0000e+00 -1.0000e+00
      -13  1    6    6    0    0 +2.9134399857e+00 +1.7892437994e+01 +3.5172993618e+00 1.8466154573e+01 0.0000000000e+00 0.0000e+00 1.0000e+00
       14  1    6    6    0    0 -1.3038905296e+02 -1.9539752753e+01 -2.6873361287e+01 1.3455587915e+02 0.0000000000e+00 0.0000e+00 -1.0000e+00
       -5  1    3    3    0  503 +1.4066485416e+02 -4.9585410426e+01 -5.5004729096e+01 1.5903749352e+02 4.7000000000e+00 0.0000e+00 1.0000e+00
       13  1    4    4    0    0 +2.3290476082e+01 +1.7726558744e+01 -2.2199670219e+00 2.9353115927e+01 0.0000000000e+00 0.0000e+00 -1.0000e+00
      -14  1    4    4    0    0 +2.3751502027e+01 -6.6256619163e+01 +4.5990790717e+01 8.4078690893e+01 0.0000000000e+00 0.0000e+00 1.0000e+00
<mgrwt>
<rscale>  2 0.27353275E+03</rscale>
<asrwt>0</asrwt>
<pdfrwt beam="1">  1       21 0.35074177E-01 0.27396583E+03</pdfrwt>
<pdfrwt beam="2">  1       21 0.51472936E-01 0.27396583E+03</pdfrwt>
<totfact> 0.27010186E+04</totfact>
</mgrwt>
</event>
<event>
12      1 +1.4674046e+01 1.77805600e+02 7.54677100e-03 1.17033900e-01
       21 -1    0    0  503  502 +0.0000000000e+00 +0.0000000000e+00 +2.7888949000e+02 2.7888949000e+02 0.0000000000e+00 0.0000e+00 -1.0000e+00
       21 -1    0    0  501  503 -0.0000000000e+00 -0.0000000000e+00 -1.2644868149e+02 1.2644868149e+02 0.0000000000e+00 0.0000e+00 -1.0000e+00
        6  2    1    2  501    0 -2.7081859548e+01 +2.4028990473e+01 +8.8342660156e+00 1.7802491088e+02 1.7408045593e+02 0.0000e+00 0.0000e+00
       24  2    3    3    0    0 -1.0688076775e+01 -2.2777580077e+01 -5.1553339617e+01 9.9741042333e+01 8.1593354880e+01 0.0000e+00 0.0000e+00
       -6  2    1    2    0  502 +2.7081859548e+01 -2.4028990473e+01 +1.4360654250e+02 2.2731326061e+02 1.7244610723e+02 0.0000e+00 0.0000e+00
      -24  2    5    5    0    0 -5.1097649580e+01 -8.4262427384e+00 +9.5513142075e+01 1.3409015967e+02 7.8583963069e+01 0.0000e+00 0.0000e+00
        5  1    3    3  501    0 -1.6393782773e+01 +4.6806570550e+01 +6.0387605633e+01 7.8283868545e+01 4.7000000000e+00 0.0000e+00 -1.0000e+00
      -13  1    4    4    0    0 -4.5091161161e+01 -9.7323482302e+00 -1.6696400918e+01 4.9058141226e+01 0.0000000000e+00 0.0000e+00 1.0000e+00
       14  1    4    4    0    0 +3.4403084385e+01 -1.3045231847e+01 -3.4856938699e+01 5.0682901107e+01 0.0000000000e+00 0.0000e+00 -1.0000e+00
       -5  1    5    5    0  502 +7.8179509129e+01 -1.5602747734e+01 +4.8093400425e+01 9.3223100940e+01 4.7000000000e+00 0.0000e+00 1.0000e+00
       13  1    6    6    0    0 -8.4036846076e+00 -3.9665894459e+01 +3.3644646952e+01 5.2687449803e+01 0.0000000000e+00 0.0000e+00 -1.0000e+00
      -14  1    6    6    0    0 -4.2693964973e+01 +3.1239651721e+01 +6.1868495123e+01 8.1402709866e+01 0.0000000000e+00 0.0000e+00 1.0000e+00
<mgrwt>
<rscale>  2 0.17740428E+03</rscale>
<asrwt>0</asrwt>
<pdfrwt beam="1">  1       21 0.42906075E-01 0.17780558E+03</pdfrwt>
<pdfrwt beam="2">  1       21 0.19453643E-01 0.17780558E+03</pdfrwt>
<totfact> 0.12763607E+05</totfact>
</mgrwt>
</event>
<event>
12      1 +1.4674046e+01 1.90196600e+02 7.54677100e-03 1.15861100e-01
       21 -1    0    0  501  502 +0.0000000000e+00 +0.0000000000e+00 +2.3001654927e+02 2.3001654927e+02 0.0000000000e+00 0.0000e+00 -1.0000e+00
       21 -1    0    0  502  503 -0.0000000000e+00 -0.0000000000e+00 -1.5939957787e+02 1.5939957787e+02 0.0000000000e+00 0.0000e+00 -1.0000e+00
       -6  2    1    2    0  503 -1.8916273188e+01 -7.1196042059e+01 +7.0717278287e+00 1.8888492896e+02 1.7378378882e+02 0.0000e+00 0.0000e+00
      -24  2    3    3    0    0 +4.9029962073e+01 -6.1341351407e+00 +1.4046144561e+01 9.4436662128e+01 7.9242817858e+01 0.0000e+00 0.0000e+00
        6  2    1    2  501    0 +1.8916273188e+01 +7.1196042059e+01 +6.3545243574e+01 2.0053119818e+02 1.7535125225e+02 0.0000e+00 0.0000e+00
       24  2    5    5    0    0 -1.8098269059e+01 -2.6527173577e+01 +2.9421084604e+01 9.0501877370e+01 7.9333166503e+01 0.0000e+00 0.0000e+00
        5  1    5    5  501    0 +3.7014542247e+01 +9.7723215635e+01 +3.4124158970e+01 1.1002932081e+02 4.7000000000e+00 0.0000e+00 -1.0000e+00
      -13  1    6    6    0    0 -2.6414829961e+01 -1.9591516256e+01 +5.4235425512e+01 6.3427534490e+01 0.0000000000e+00 0.0000e+00 1.0000e+00
       14  1    6    6    0    0 +8.3165609020e+00 -6.9356573211e+00 -2.4814340908e+01 2.7074342881e+01 0.0000000000e+00 0.0000e+00 -1.0000e+00
       -5  1    3    3    0  503 -6.7946235261e+01 -6.5061906918e+01 -6.9744167325e+00 9.4448266827e+01 4.7000000000e+00 0.0000e+00 1.0000e+00
       13  1    4    4    0    0 +3.8964446462e+01 -3.7392724792e+01 +2.5414505672e+01 5.9685350414e+01 0.0000000000e+00 0.0000e+00 -1.0000e+00
      -14  1    4    4    0    0 +1.0065515610e+01 +3.1258589651e+01 -1.1368361111e+01 3.4751311714e+01 0.0000000000e+00 0.0000e+00 1.0000e+00
<mgrwt>
<rscale>  2 0.18983458E+03</rscale>
<asrwt>0</asrwt>
<pdfrwt beam="1">  1       21 0.35387161E-01 0.19019664E+03</pdfrwt>
<pdfrwt beam="2">  1       21 0.24523012E-01 0.19019664E+03</pdfrwt>
<totfact> 0.12109134E+05</totfact>
</mgrwt>
</event>
<event>
13      2 +1.4674046e+01 1.76720700e+02 7.54677100e-03 1.17102600e-01
       21 -1    0    0  501  502 +0.0000000000e+00 +0.0000000000e+00 +2.3508450580e+02 2.3508450580e+02 0.0000000000e+00 0.0000e+00 1.0000e+00
       21 -1    0    0  504  503 -0.0000000000e+00 -0.0000000000e+00 -1.5625908432e+03 1.5625908432e+03 0.0000000000e+00 0.0000e+00 1.0000e+00
        6  2    1    2  501    0 +3.2515796437e+01 -2.9232077311e+01 +1.3145304882e+02 2.2153809185e+02 1.7287981586e+02 0.0000e+00 0.0000e+00
       24  2    3    3    0    0 +7.9061713508e+01 -2.8743806492e+01 +1.3157822935e+02 1.7475276856e+02 7.8413893719e+01 0.0000e+00 0.0000e+00
       -6  2    1    2    0  503 -1.0050043038e+01 +1.3260455669e+01 -7.0494849899e+01 1.8739913519e+02 1.7283538110e+02 0.0000e+00 0.0000e+00
      -24  2    5    5    0    0 +1.5930109408e+01 +7.1802772052e+01 -4.6893707084e+01 1.1897929106e+02 8.0917522686e+01 0.0000e+00 0.0000e+00
        5  1    3    3  501    0 -4.6545917071e+01 -4.8827081929e-01 -1.2518052724e-01 4.6785323281e+01 4.7000000000e+00 0.0000e+00 -1.0000e+00
      -13  1    4    4    0    0 +3.5331838890e+01 +4.8135124400e+00 +4.1318401493e+00 3.5896808276e+01 0.0000000000e+00 0.0000e+00 1.0000e+00
       14  1    4    4    0    0 +4.3729874618e+01 -3.3557318932e+01 +1.2744638920e+02 1.3885596029e+02 0.0000000000e+00 0.0000e+00 -1.0000e+00
       -5  1    5    5    0  503 -2.5980152446e+01 -5.8542316383e+01 -2.3601142815e+01 6.8419844130e+01 4.7000000000e+00 0.0000e+00 1.0000e+00
       13  1    6    6    0    0 -1.2140148252e+01 +7.8365178928e+01 -4.2013545229e+01 8.9741977082e+01 0.0000000000e+00 0.0000e+00 -1.0000e+00
      -14  1    6    6    0    0 +2.8070257660e+01 -6.5624068752e+00 -4.8801618548e+00 2.9237313981e+01 0.0000000000e+00 0.0000e+00 1.0000e+00
       21  1    1    2  504  502 -2.2465753399e+01 +1.5971621642e+01 -1.3884645363e+03 1.3887381220e+03 0.0000000000e+00 0.0000e+00 1.0000e+00
<mgrwt>
<rscale>  3 0.17670978E+03</rscale>
<asrwt>0</asrwt>
<pdfrwt beam="1">  1       21 0.36166847E-01 0.17672065E+03</pdfrwt>
<pdfrwt beam="2">  1       21 0.24039859E+00 0.17672065E+03</pdfrwt>
<totfact> 0.57071189E+02</totfact>
</mgrwt>
</event>
<event>
14      3 +1.4674046e+01 2.23714000e+02 7.54677100e-03 1.13285900e-01
        2 -1    0    0  501    0 +0.0000000000e+00 +0.0000000000e+00 +2.8862738733e+03 2.8862738733e+03 0.0000000000e+00 0.0000e+00 1.0000e+00
       -2 -1    0    0    0  501 -0.0000000000e+00 -0.0000000000e+00 -1.2870045570e+03 1.2870045570e+03 0.0000000000e+00 0.0000e+00 -1.0000e+00
        6  2    1    2  502    0 +7.1837619486e+01 -1.2949580746e+02 +5.6644897173e+01 2.3538393341e+02 1.7397454989e+02 0.0000e+00 0.0000e+00
       24  2    3    3    0    0 +8.9440940660e+01 -9.7350245153e+01 -1.3584665045e+01 1.5602717250e+02 8.1750739062e+01 0.0000e+00 0.0000e+00
       -6  2    1    2    0  503 -9.7618128206e+01 +9.6741637001e+01 -4.7900683494e+02 5.3163109841e+02 1.8519134318e+02 0.0000e+00 0.0000e+00
      -24  2    5    5    0    0 -1.3068982750e+02 +1.1604022970e+02 -3.6574151212e+02 4.1197619325e+02 7.3568771888e+01 0.0000e+00 0.0000e+00
        5  1    3    3  502    0 -1.7603321174e+01 -3.2145562304e+01 +7.0229562218e+01 7.9356760906e+01 4.7000000000e+00 0.0000e+00 -1.0000e+00
      -13  1    4    4    0    0 +5.6730969328e+01 -1.7057455831e+01 +2.0760592043e+01 6.2772301712e+01 0.0000000000e+00 0.0000e+00 1.0000e+00
       14  1    4    4    0    0 +3.2709971332e+01 -8.0292789322e+01 -3.4345257087e+01 9.3254870790e+01 0.0000000000e+00 0.0000e+00 -1.0000e+00
       -5  1    5    5    0  503 +3.3071699298e+01 -1.9298592694e+01 -1.1326532282e+02 1.1965490516e+02 4.7000000000e+00 0.0000e+00 1.0000e+00
       13  1    6    6    0    0 -9.6396467883e+01 +8.6161704880e+01 -3.2904562849e+02 3.5353520905e+02 0.0000000000e+00 0.0000e+00 -1.0000e+00
      -14  1    6    6    0    0 -3.4293359621e+01 +2.9878524815e+01 -3.6695883629e+01 5.8440984202e+01 0.0000000000e+00 0.0000e+00 1.0000e+00
        2  1    1    2  503    0 +4.3604508664e+00 +3.8027714971e+01 +2.7136365961e+03 2.7139065378e+03 0.0000000000e+00 0.0000e+00 1.0000e+00
       -2  1    1    2    0  502 +2.1420057853e+01 -5.2735445159e+00 -6.9200534204e+02 6.9235686070e+02 0.0000000000e+00 0.0000e+00 -1.0000e+00
<mgrwt>
<rscale>  4 0.22137943E+03</rscale>
<asrwt>0</asrwt>
<pdfrwt beam="1">  1        2 0.44404213E+00 0.22371396E+03</pdfrwt>
<pdfrwt beam="2">  1       -2 0.19800070E+00 0.22371396E+03</pdfrwt>
<totfact> 0.38267221E-01</totfact>
</mgrwt>
</event>
<event>
14      3 +1.4674046e+01 1.78299200e+02 7.54677100e-03 1.16975300e-01
       21 -1    0    0  501  502 +0.0000000000e+00 +0.0000000000e+00 +5.5148601033e+02 5.5148601033e+02 0.0000000000e+00 0.0000e+00 -1.0000e+00
       21 -1    0    0  505  503 -0.0000000000e+00 -0.0000000000e+00 -1.3597981569e+02 1.3597981569e+02 0.0000000000e+00 0.0000e+00 -1.0000e+00
        6  2    1    2  501    0 -2.9229307239e+01 +9.2544089100e+00 +4.7436576993e+00 1.7701393020e+02 1.7427401617e+02 0.0000e+00 0.0000e+00
       24  2    3    3    0    0 +4.6796868712e+01 -1.2661684304e+01 -9.5575934733e+00 9.6472572151e+01 8.2857373925e+01 0.0000e+00 0.0000e+00
       -6  2    1    2    0  503 +3.5024777674e+01 +2.1512755589e+01 +4.1985911622e+02 4.5598028333e+02 1.7305145942e+02 0.0000e+00 0.0000e+00
      -24  2    5    5    0    0 +8.9761314084e+01 +2.1862562390e+01 +2.8961613254e+02 3.1462422375e+02 8.1091508796e+01 0.0000e+00 0.0000e+00
        5  1    3    3  501    0 -7.6026175951e+01 +2.1916093214e+01 +1.4301251173e+01 8.0541358051e+01 4.7000000000e+00 0.0000e+00 -1.0000e+00
      -13  1    4    4    0    0 +5.9929773517e+01 +1.3715363731e+01 +8.2710130699e+00 6.2033044527e+01 0.0000000000e+00 0.0000e+00 1.0000e+00
       14  1    4    4    0    0 -1.3132904806e+01 -2.6377048035e+01 -1.7828606543e+01 3.4439527624e+01 0.0000000000e+00 0.0000e+00 -1.0000e+00
       -5  1    5    5    0  503 -5.4736536410e+01 -3.4980680088e-01 +1.3024298368e+02 1.4135605958e+02 4.7000000000e+00 0.0000e+00 1.0000e+00
       13  1    6    6    0    0 +5.6255244777e+01 +9.8198433266e+00 +2.6561752581e+02 2.7168686370e+02 0.0000000000e+00 0.0000e+00 -1.0000e+00
      -14  1    6    6    0    0 +3.3506069307e+01 +1.2042719064e+01 +2.3998606730e+01 4.2937360047e+01 0.0000000000e+00 0.0000e+00 1.0000e+00
       21  1    1    2  504  502 -1.7312135076e+01 -1.3664018846e+01 +1.1885834713e+01 2.5053712274e+01 0.0000000000e+00 0.0000e+00 -1.0000e+00
       21  1    1    2  505  504 +1.1516664641e+01 -1.7103145653e+01 -2.0982413998e+01 2.9417900212e+01 0.0000000000e+00 0.0000e+00 -1.0000e+00
<mgrwt>
<rscale>  4 0.17799972E+03</rscale>
<asrwt>0</asrwt>
<pdfrwt beam="1">  1       21 0.84844001E-01 0.17829917E+03</pdfrwt>
<pdfrwt beam="2">  1       21 0.20919972E-01 0.17829917E+03</pdfrwt>
<totfact> 0.25745605E+04</totfact>
</mgrwt>
</event>
<event>
12      1 +1.4674046e+01 1.76788800e+02 7.54677100e-03 1.17137900e-01
       21 -1    0    0  503  502 +0.0000000000e+00 +0.0000000000e+00 +1.0612406614e+02 1.0612406614e+02 0.0000000000e+00 0.0000e+00 1.0000e+00
       21 -1    0    0  501  503 -0.0000000000e+00 -0.0000000000e+00 -1.1652234012e+03 1.1652234012e+03 0.0000000000e+00 0.0000e+00 1.0000e+00
        6  2    1    2  501    0 -2.5158784665e+01 +1.8862042438e+01 -1.0793037869e+03 1.0934078763e+03 1.7220737056e+02 0.0000e+00 0.0000e+00
       24  2    3    3    0    0 +1.9194368079e+01 -4.8654535180e+01 -5.7174049291e+02 5.7943484413e+02 7.8242314592e+01 0.0000e+00 0.0000e+00
       -6  2    1    2    0  502 +2.5158784665e+01 -1.8862042438e+01 +2.0204451785e+01 1.7793959108e+02 1.7396993163e+02 0.0000e+00 0.0000e+00
      -24  2    5    5    0    0 +4.8255914701e+01 -5.2649320899e+01 +5.8368384647e+01 1.2178237095e+02 7.9520395198e+01 0.0000e+00 0.0000e+00
        5  1    3    3  501    0 -4.4353152744e+01 +6.7516577618e+01 -5.0756329398e+02 5.1397303218e+02 4.7000000000e+00 0.0000e+00 -1.0000e+00
      -13  1    4    4    0    0 -1.5996486195e+01 -2.7131489074e+00 -2.6086167509e+01 3.0720300826e+01 0.0000000000e+00 0.0000e+00 1.0000e+00
       14  1    4    4    0    0 +3.5190854274e+01 -4.5941386272e+01 -5.4565432540e+02 5.4871454330e+02 0.0000000000e+00 0.0000e+00 -1.0000e+00
       -5  1    5    5    0  502 -2.3097130036e+01 +3.3787278461e+01 -3.8163932862e+01 5.6157220134e+01 4.7000000000e+00 0.0000e+00 1.0000e+00
       13  1    6    6    0    0 +9.3553550027e+00 +2.0950843414e+01 +1.8531165822e+01 2.9493467305e+01 0.0000000000e+00 0.0000e+00 -1.0000e+00
      -14  1    6    6    0    0 +3.8900559698e+01 -7.3600164313e+01 +3.9837218825e+01 9.2288903642e+01 0.0000000000e+00 0.0000e+00 1.0000e+00
<mgrwt>
<rscale>  2 0.17635365E+03</rscale>
<asrwt>0</asrwt>
<pdfrwt beam="1">  1       21 0.16326780E-01 0.17678880E+03</pdfrwt>
<pdfrwt beam="2">  1       21 0.17926514E+00 0.17678880E+03</pdfrwt>
<totfact> 0.62722834E+03</totfact>
</mgrwt>
</event>
<event>
14      3 +1.4674046e+01 2.07650700e+02 7.54677100e-03 1.14390000e-01
       21 -1    0    0  505  502 +0.0000000000e+00 +0.0000000000e+00 +8.3732055857e+01 8.3732055857e+01 0.0000000000e+00 0.0000e+00 -1.0000e+00
       21 -1    0    0  501  503 -0.0000000000e+00 -0.0000000000e+00 -9.0750408388e+02 9.0750408388e+02 0.0000000000e+00 0.0000e+00 -1.0000e+00
        6  2    1    2  501    0 +1.5142326882e-01 +7.4885853010e+01 -3.1223798294e+02 3.6424469870e+02 1.7197013878e+02 0.0000e+00 0.0000e+00
       24  2    3    3    0    0 +4.3904435774e+01 +1.5911873418e+01 -2.5287367733e+02 2.6970123170e+02 8.1319557912e+01 0.0000e+00 0.0000e+00
       -6  2    1    2    0  502 +5.3121344648e+01 -1.3151482426e+02 -1.8909889881e+02 2.9392327772e+02 1.7468392426e+02 0.0000e+00 0.0000e+00
      -24  2    5    5    0    0 +5.0798991178e+01 -1.6556384217e+02 -1.5771150603e+02 2.4731869240e+02 7.9383204377e+01 0.0000e+00 0.0000e+00
        5  1    3    3  501    0 -4.3753012505e+01 +5.8973979592e+01 -5.9364305610e+01 9.4543467002e+01 4.7000000000e+00 0.0000e+00 -1.0000e+00
      -13  1    4    4    0    0 +5.4240340585e+01 +3.0166925646e+01 -1.1474562473e+02 1.3045541899e+02 0.0000000000e+00 0.0000e+00 1.0000e+00
       14  1    4    4    0    0 -1.0335904811e+01 -1.4255052227e+01 -1.3812805260e+02 1.3924581271e+02 0.0000000000e+00 0.0000e+00 -1.0000e+00
       -5  1    5    5    0  502 +2.3223534700e+00 +3.4049017917e+01 -3.1387392787e+01 4.6604585319e+01 4.7000000000e+00 0.0000e+00 1.0000e+00
       13  1    6    6    0    0 +3.5452498774e+01 -4.9764299359e+01 -1.5035975965e+01 6.2924126798e+01 0.0000000000e+00 0.0000e+00 -1.0000e+00
      -14  1    6    6    0    0 +1.5346492404e+01 -1.1579954281e+02 -1.4267553006e+02 1.8439456560e+02 0.0000000000e+00 0.0000e+00 1.0000e+00
       21  1    1    2  504  503 -2.7131335958e+01 +2.0233566093e+01 -1.9660875836e+02 1.9950065276e+02 0.0000000000e+00 0.0000e+00 -1.0000e+00
       21  1    1    2  505  504 -2.6141431959e+01 +3.6395405153e+01 -1.2582638791e+02 1.3356751055e+02 0.0000000000e+00 0.0000e+00 -1.0000e+00
<mgrwt>
<rscale>  4 0.20707887E+03</rscale>
<asrwt>0</asrwt>
<pdfrwt beam="1">  1       21 0.12881855E-01 0.20765065E+03</pdfrwt>
<pdfrwt beam="2">  1       21 0.13961601E+00 0.20765065E+03</pdfrwt>
<totfact> 0.18437158E+04</totfact>
</mgrwt>
</event>
<event>
12      1 +1.4674046e+01 2.20325400e+02 7.54677100e-03 1.13364100e-01
       -2 -1    0    0    0  501 -0.0000000000e+00 +0.0000000000e+00 +7.9770000863e+01 7.9770000863e+01 0.0000000000e+00 0.0000e+00 1.0000e+00
        2 -1    0    0  502    0 +0.0000000000e+00 -0.0000000000e+00 -9.3782459442e+02 9.3782459442e+02 0.0000000000e+00 0.0000e+00 -1.0000e+00
        6  2    1    2  502    0 -1.0737555953e+02 -8.1978875774e+01 -7.2857699579e+02 7.6072517101e+02 1.7212873137e+02 0.0000e+00 0.0000e+00
       24  2    3    3    0    0 -1.2792092651e+00 -2.4180066657e+01 -4.3456317885e+02 4.4282054313e+02 8.1600030711e+01 0.0000e+00 0.0000e+00
       -6  2    1    2    0  501 +1.0737555953e+02 +8.1978875774e+01 -1.2947759777e+02 2.5686942427e+02 1.7597558337e+02 0.0000e+00 0.0000e+00
      -24  2    5    5    0    0 +9.7188985898e+01 +1.9532411112e+01 -1.8745279483e+01 1.2924864405e+02 8.0787452132e+01 0.0000e+00 0.0000e+00
        5  1    3    3  502    0 -1.0609635026e+02 -5.7798809117e+01 -2.9401381694e+02 3.1790462788e+02 4.7000000000e+00 0.0000e+00 -1.0000e+00
      -13  1    4    4    0    0 -1.7527926648e+01 -9.3091020402e+00 -2.1842092883e+01 2.9512109631e+01 0.0000000000e+00 0.0000e+00 1.0000e+00
       14  1    4    4    0    0 +1.6248717383e+01 -1.4870964617e+01 -4.1272108596e+02 4.1330843350e+02 0.0000000000e+00 0.0000e+00 -1.0000e+00
       -5  1    5    5    0  501 +1.0186573629e+01 +6.2446464661e+01 -1.1073231828e+02 1.2762078022e+02 4.7000000000e+00 0.0000e+00 1.0000e+00
       13  1    6    6    0    0 +5.0524736962e+01 +3.4831486354e+01 -4.2549182748e+01 7.4675393801e+01 0.0000000000e+00 0.0000e+00 -1.0000e+00
      -14  1    6    6    0    0 +4.6664248936e+01 -1.5299075242e+01 +2.3803903266e+01 5.4573250249e+01 0.0000000000e+00 0.0000e+00 1.0000e+00
<mgrwt>
<rscale>  2 0.22032540E+03</rscale>
<asrwt>0</asrwt>
<pdfrwt beam="2">  1        2 0.14428070E+00 0.22032540E+03</pdfrwt>
<pdfrwt beam="1">  1       -2 0.12272308E-01 0.22032540E+03</pdfrwt>
<totfact> 0.13697130E+03</totfact>
</mgrwt>
</event>
<event>
12      1 +1.4674046e+01 2.88502600e+02 7.54677100e-03 1.09113400e-01
        2 -1    0    0  502    0 +0.0000000000e+00 +0.0000000000e+00 +5.8231295253e+01 5.8231295253e+01 0.0000000000e+00 0.0000e+00 1.0000e+00
       -2 -1    0    0    0  501 -0.0000000000e+00 -0.0000000000e+00 -1.6588239064e+03 1.6588239064e+03 0.0000000000e+00 0.0000e+00 -1.0000e+00
        6  2    1    2  502    0 -2.6711724257e+01 -2.2785294627e+02 -4.8380709427e+02 5.6389825349e+02 1.7686563963e+02 0.0000e+00 0.0000e+00
       24  2    3    3    0    0 -4.1805324025e+01 -2.4414520817e+02 -4.3858355848e+02 5.1329674421e+02 9.8810131341e+01 0.0000e+00 0.0000e+00
       -6  2    1    2    0  501 +2.6711724257e+01 +2.2785294627e+02 -1.1167855168e+03 1.1531569481e+03 1.7300455213e+02 0.0000e+00 0.0000e+00
      -24  2    5    5    0    0 -4.5330244598e+01 +1.1157616765e+02 -4.6089974225e+02 4.8314308721e+02 8.0589069007e+01 0.0000e+00 0.0000e+00
        5  1    3    3  502    0 +1.5093599769e+01 +1.6292261902e+01 -4.5223535796e+01 5.0601509284e+01 4.7000000000e+00 0.0000e+00 -1.0000e+00
      -13  1    4    4    0    0 +2.2733441856e+01 -1.4269705070e+01 -3.1753414660e+01 4.1577797007e+01 0.0000000000e+00 0.0000e+00 1.0000e+00
       14  1    4    4    0    0 -6.4538765881e+01 -2.2987550310e+02 -4.0683014382e+02 4.7171894720e+02 0.0000000000e+00 0.0000e+00 -1.0000e+00
       -5  1    5    5    0  501 +7.2041968855e+01 +1.1627677862e+02 -6.5588577457e+02 6.7001386091e+02 4.7000000000e+00 0.0000e+00 1.0000e+00
       13  1    6    6    0    0 -1.6359850683e+01 +1.1177876715e+02 -3.2165775176e+02 3.4091912057e+02 0.0000000000e+00 0.0000e+00 -1.0000e+00
      -14  1    6    6    0    0 -2.8970393915e+01 -2.0259950397e-01 -1.3924199049e+02 1.4222396664e+02 0.0000000000e+00 0.0000e+00 1.0000e+00
<mgrwt>
<rscale>  2 0.28850261E+03</rscale>
<asrwt>0</asrwt>
<pdfrwt beam="1">  1        2 0.89586608E-02 0.28850261E+03</pdfrwt>
<pdfrwt beam="2">  1       -2 0.25520368E+00 0.28850261E+03</pdfrwt>
<totfact> 0.49034777E+01</totfact>
</mgrwt>
</event>
<event>
14      3 +1.4674046e+01 3.79369100e+02 7.54677100e-03 1.05120500e-01
       21 -1    0    0  504  503 +0.0000000000e+00 +0.0000000000e+00 +6.1171803108e+02 6.1171803108e+02 0.0000000000e+00 0.0000e+00 1.0000e+00
        2 -1    0    0  503    0 -0.0000000000e+00 -0.0000000000e+00 -1.0505705871e+03 1.0505705871e+03 0.0000000000e+00 0.0000e+00 -1.0000e+00
       -6  2    1    2    0  502 -9.5868389005e+00 +2.8788924229e+02 -1.2031435954e+01 3.3642585929e+02 1.7339400232e+02 0.0000e+00 0.0000e+00
      -24  2    3    3    0    0 +5.0849611574e+01 +1.7757346212e+02 +3.0511023201e+01 2.0355717701e+02 7.9916108064e+01 0.0000e+00 0.0000e+00
        6  2    1    2  501    0 +1.8218509644e+02 -3.3198357503e+02 +2.1311615015e+02 4.6818309453e+02 1.7427682892e+02 0.0000e+00 0.0000e+00
       24  2    5    5    0    0 +1.7743000701e+02 -3.4373219803e+02 +2.1668387575e+02 4.5420240486e+02 9.8563133198e+01 0.0000e+00 0.0000e+00
        5  1    5    5  501    0 +4.7550894273e+00 +1.1748622995e+01 -3.5677255994e+00 1.3980689672e+01 4.7000000000e+00 0.0000e+00 -1.0000e+00
      -13  1    6    6    0    0 +3.1359735530e+01 -8.5585067568e+01 +1.0042780126e+02 1.3562440809e+02 0.0000000000e+00 0.0000e+00 1.0000e+00
       14  1    6    6    0    0 +1.4607027148e+02 -2.5814713046e+02 +1.1625607449e+02 3.1857799678e+02 0.0000000000e+00 0.0000e+00 -1.0000e+00
       -5  1    3    3    0  502 -6.0436450474e+01 +1.1031578017e+02 -4.2542459154e+01 1.3286868228e+02 4.7000000000e+00 0.0000e+00 1.0000e+00
       13  1    4    4    0    0 +1.2462451613e+01 +6.5287554570e+01 -2.6935894034e+01 7.1716942694e+01 0.0000000000e+00 0.0000e+00 -1.0000e+00
      -14  1    4    4    0    0 +3.8387159961e+01 +1.1228590755e+02 +5.7446917235e+01 1.3184023432e+02 0.0000000000e+00 0.0000e+00 1.0000e+00
       21  1    1    2  504  501 -1.0492507481e+02 -1.5404212899e+02 -2.1392149589e+00 1.8639427317e+02 0.0000000000e+00 0.0000e+00 -1.0000e+00
        2  1    1    2  502    0 -6.7673182724e+01 +1.9813646173e+02 -6.3779805523e+02 6.7128539116e+02 0.0000000000e+00 0.0000e+00 -1.0000e+00
<mgrwt>
<rscale>  4 0.37926784E+03</rscale>
<asrwt>0</asrwt>
<pdfrwt beam="1">  1       21 0.94110467E-01 0.37936906E+03</pdfrwt>
<pdfrwt beam="2">  1        2 0.16162624E+00 0.37936906E+03</pdfrwt>
<totfact> 0.26630007E+02</totfact>
</mgrwt>
</event>
<event>
13      2 +1.4674046e+01 1.95337400e+02 7.54677100e-03 1.15387500e-01
       21 -1    0    0  501  503 +0.0000000000e+00 +0.0000000000e+00 +5.6284497917e+02 5.6284497917e+02 0.0000000000e+00 0.0000e+00 -1.0000e+00
        1 -1    0    0  503    0 -0.0000000000e+00 -0.0000000000e+00 -1.7902183966e+02 1.7902183966e+02 0.0000000000e+00 0.0000e+00 -1.0000e+00
       -6  2    1    2    0  502 +6.6308939883e+01 -5.7452642405e+01 +3.1367076924e+02 3.6869270295e+02 1.7276364232e+02 0.0000e+00 0.0000e+00
      -24  2    3    3    0    0 +1.0363713094e+02 -1.8726850260e+01 +2.6482229381e+02 2.9588237143e+02 7.9524716882e+01 0.0000e+00 0.0000e+00
        6  2    1    2  501    0 -1.3436980690e+02 -4.6502735815e+01 +9.9670583534e+01 2.4546222451e+02 1.7349273471e+02 0.0000e+00 0.0000e+00
       24  2    5    5    0    0 -1.3969143563e+02 +5.6742134874e+00 +1.0626261498e+02 1.9239341400e+02 7.8597636869e+01 0.0000e+00 0.0000e+00
        5  1    5    5  501    0 +5.3216287304e+00 -5.2176949302e+01 -6.5920314422e+00 5.3068810514e+01 4.7000000000e+00 0.0000e+00 -1.0000e+00
      -13  1    6    6    0    0 -6.3898577738e+00 -7.9491818333e+00 +4.3038927056e+01 4.4230860452e+01 0.0000000000e+00 0.0000e+00 1.0000e+00
       14  1    6    6    0    0 -1.3330157786e+02 +1.3623395321e+01 +6.3223687920e+01 1.4816255355e+02 0.0000000000e+00 0.0000e+00 -1.0000e+00
       -5  1    3    3    0  502 -3.7328191053e+01 -3.8725792145e+01 +4.8848475431e+01 7.2810331523e+01 4.7000000000e+00 0.0000e+00 1.0000e+00
       13  1    4    4    0    0 +3.0754071006e+01 +2.6823704682e+01 +1.2759777693e+02 1.3396460986e+02 0.0000000000e+00 0.0000e+00 -1.0000e+00
      -14  1    4    4    0    0 +7.2883059930e+01 -4.5550554942e+01 +1.3722451688e+02 1.6191776157e+02 0.0000000000e+00 0.0000e+00 1.0000e+00
        1  1    1    2  502    0 +6.8060867019e+01 +1.0395537822e+02 -2.9518213261e+01 1.2771189136e+02 0.0000000000e+00 0.0000e+00 -1.0000e+00
<mgrwt>
<rscale>  3 0.19517537E+03</rscale>
<asrwt>0</asrwt>
<pdfrwt beam="1">  1       21 0.86591535E-01 0.19533738E+03</pdfrwt>
<pdfrwt beam="2">  1        1 0.27541822E-01 0.19533738E+03</pdfrwt>
<totfact> 0.20977124E+03</totfact>
</mgrwt>
</event>
<event>
13      2 +1.4674046e+01 2.08415000e+02 7.54677100e-03 1.14313100e-01
       21 -1    0    0  503  502 +0.0000000000e+00 +0.0000000000e+00 +9.9399492447e+02 9.9399492447e+02 0.0000000000e+00 0.0000e+00 1.0000e+00
       21 -1    0    0  504  503 -0.0000000000e+00 -0.0000000000e+00 -8.1203757834e+01 8.1203757834e+01 0.0000000000e+00 0.0000e+00 1.0000e+00
        6  2    1    2  501    0 +6.2335502164e+01 -4.0032811741e+01 +2.2882346988e+02 2.9546950324e+02 1.7162082080e+02 0.0000e+00 0.0000e+00
       24  2    3    3    0    0 +7.3281735041e+01 +3.2258805301e+01 +1.4229319463e+02 1.8208750977e+02 8.0608093675e+01 0.0000e+00 0.0000e+00
       -6  2    1    2    0  502 -1.1178219734e+02 +7.9914987332e+01 +6.8109477510e+02 7.1613816340e+02 1.7344195447e+02 0.0000e+00 0.0000e+00
      -24  2    5    5    0    0 +1.9366591924e+00 +5.0338120602e+01 +4.0525073640e+02 4.1627353884e+02 8.0733033837e+01 0.0000e+00 0.0000e+00
        5  1    3    3  501    0 -1.0946232877e+01 -7.2291617042e+01 +8.6530275246e+01 1.1338199347e+02 4.7000000000e+00 0.0000e+00 -1.0000e+00
      -13  1    4    4    0    0 +4.6581901060e+01 -2.0328399972e+01 +4.2880891894e+01 6.6497279955e+01 0.0000000000e+00 0.0000e+00 1.0000e+00
       14  1    4    4    0    0 +2.6699833981e+01 +5.2587205274e+01 +9.9412302740e+01 1.1559022982e+02 0.0000000000e+00 0.0000e+00 -1.0000e+00
       -5  1    5    5    0  502 -1.1371885654e+02 +2.9576866730e+01 +2.7584403870e+02 2.9986462457e+02 4.7000000000e+00 0.0000e+00 1.0000e+00
       13  1    6    6    0    0 -1.6230004185e+01 +6.2414962567e+01 +2.0667349019e+02 2.1650166775e+02 0.0000000000e+00 0.0000e+00 -1.0000e+00
      -14  1    6    6    0    0 +1.8166663378e+01 -1.2076841965e+01 +1.9857724620e+02 1.9977187109e+02 0.0000000000e+00 0.0000e+00 1.0000e+00
       21  1    1    2  504  501 +4.9446695179e+01 -3.9882175591e+01 +2.8729216575e+00 6.3591015662e+01 0.0000000000e+00 0.0000e+00 1.0000e+00
<mgrwt>
<rscale>  3 0.20803573E+03</rscale>
<asrwt>0</asrwt>
<pdfrwt beam="1">  1       21 0.15292229E+00 0.20841503E+03</pdfrwt>
<pdfrwt beam="2">  1       21 0.12492887E-01 0.20841503E+03</pdfrwt>
<totfact> 0.15338732E+04</totfact>
</mgrwt>
</event>
<event>
14      3 +1.4674046e+01 1.94819600e+02 7.54677100e-03 1.15451100e-01
       21 -1    0    0  501  502 +0.0000000000e+00 +0.0000000000e+00 +1.9777273607e+01 1.9777273607e+01 0.0000000000e+00 0.0000e+00 1.0000e+00
       21 -1    0    0  504  503 -0.0000000000e+00 -0.0000000000e+00 -3.0226467383e+03 3.0226467383e+03 0.0000000000e+00 0.0000e+00 1.0000e+00
       -6  2    1    2    0  503 +1.0809344911e+02 +4.8576559175e+01 -9.0577488774e+02 9.2953433360e+02 1.7193619234e+02 0.0000e+00 0.0000e+00
      -24  2    3    3    0    0 +1.1364054571e+02 -1.7837547362e+01 -5.7381261708e+02 5.9091560557e+02 8.1780081110e+01 0.0000e+00 0.0000e+00
        6  2    1    2  501    0 -5.8337164754e+01 -1.4108154789e+01 -1.3594799243e+03 1.3718336686e+03 1.7360784775e+02 0.0000e+00 0.0000e+00
       24  2    5    5    0    0 -7.3576846309e+01 +1.7172514294e+01 -5.4277140012e+02 5.5437074486e+02 8.3771608627e+01 0.0000e+00 0.0000e+00
        5  1    5    5  501    0 +1.5239681555e+01 -3.1280669083e+01 -8.1670852422e+02 8.1746292373e+02 4.7000000000e+00 0.0000e+00 -1.0000e+00
      -13  1    6    6    0    0 -4.2916993203e-01 +2.4330304720e+01 -4.4597200767e+01 5.0804116279e+01 0.0000000000e+00 0.0000e+00 1.0000e+00
       14  1    6    6    0    0 -7.3147676376e+01 -7.1577904261e+00 -4.9817419935e+02 5.0356662858e+02 0.0000000000e+00 0.0000e+00 -1.0000e+00
       -5  1    3    3    0  503 -5.5470965978e+00 +6.6414106536e+01 -3.3196227067e+02 3.3861872803e+02 4.7000000000e+00 0.0000e+00 1.0000e+00
       13  1    4    4    0    0 +9.1552138495e-01 -1.3594694156e+01 -1.2869343382e+01 1.8742302091e+01 0.0000000000e+00 0.0000e+00 -1.0000e+00
      -14  1    4    4    0    0 +1.1272502432e+02 -4.2428532059e+00 -5.6094327369e+02 5.7217330348e+02 0.0000000000e+00 0.0000e+00 1.0000e+00
       21  1    1    2  504  505 -2.6437553227e+01 -2.0116740037e+01 -5.8925864400e+02 5.9019435525e+02 0.0000000000e+00 0.0000e+00 1.0000e+00
       21  1    1    2  505  502 -2.3318731128e+01 -1.4351664348e+01 -1.4835600860e+02 1.5086165443e+02 0.0000000000e+00 0.0000e+00 1.0000e+00
<mgrwt>
<rscale>  4 0.19444650E+03</rscale>
<asrwt>0</asrwt>
<pdfrwt beam="1">  1       21 0.30426590E-02 0.19481961E+03</pdfrwt>
<pdfrwt beam="2">  1       21 0.46502235E+00 0.19481961E+03</pdfrwt>
<totfact> 0.20335390E+03</totfact>
</mgrwt>
</event>
<event>
13      3 +1.4674046e+01 7.86864000e+02 7.54677100e-03 9.94079800e-02
        2 -1    0    0  501    0 +0.0000000000e+00 +0.0000000000e+00 +2.7632403638e+03 2.7632403638e+03 0.0000000000e+00 0.0000e+00 -1.0000e+00
        1 -1    0    0  502    0 -0.0000000000e+00 -0.0000000000e+00 -8.3951987899e+02 8.3951987899e+02 0.0000000000e+00 0.0000e+00 1.0000e+00
       24  2    1    2    0    0 -3.5379977627e+02 +2.8977352322e+02 +7.2921864830e+02 8.6485229260e+02 8.4063514871e+01 0.0000e+00 0.0000e+00
       -6  2    1    2    0  503 +1.3154783669e+02 -1.0468636044e+02 -6.4960746493e+01 2.5054924271e+02 1.7404297468e+02 0.0000e+00 0.0000e+00
      -24  2    4    4    0    0 +1.1486679958e+02 -3.7046516798e+01 +1.3435571497e+01 1.4556601489e+02 8.0262843571e+01 0.0000e+00 0.0000e+00
        5  1    1    2  501    0 +2.3492473573e+02 -1.9815123980e+02 +3.0207712137e+02 4.3095965304e+02 4.7000000000e+00 0.0000e+00 -1.0000e+00
      -13  1    3    3    0    0 -3.4254846118e+02 +2.7210650676e+02 +6.5442165431e+02 7.8717793472e+02 0.0000000000e+00 0.0000e+00 1.0000e+00
       14  1    3    3    0    0 -1.1251315091e+01 +1.7667016458e+01 +7.4796993987e+01 7.7674357875e+01 0.0000000000e+00 0.0000e+00 -1.0000e+00
       -5  1    4    4    0  503 +1.6681037115e+01 -6.7639843647e+01 -7.8396317990e+01 1.0498322781e+02 4.7000000000e+00 0.0000e+00 1.0000e+00
       13  1    5    5    0    0 +2.2484247040e+01 +2.4424165841e+01 -3.2396297620e+00 3.3355306069e+01 0.0000000000e+00 0.0000e+00 -1.0000e+00
      -14  1    5    5    0    0 +9.2382552538e+01 -6.1470682639e+01 +1.6675201259e+01 1.1221070882e+02 0.0000000000e+00 0.0000e+00 1.0000e+00
        2  1    1    2  502    0 +7.1404487271e+00 +1.9592251642e+01 +1.5066220929e+03 1.5067663964e+03 0.0000000000e+00 0.0000e+00 -1.0000e+00
        1  1    1    2  503    0 -1.9813244884e+01 -6.5281746146e+00 -5.4923663126e+02 5.4963265811e+02 0.0000000000e+00 0.0000e+00 1.0000e+00
<mgrwt>
<rscale>  4 0.58324138E+03</rscale>
<asrwt>0</asrwt>
<pdfrwt beam="1">  1        2 0.42511390E+00 0.78686401E+03</pdfrwt>
<pdfrwt beam="2">  1        1 0.12915691E+00 0.78686401E+03</pdfrwt>
<totfact> 0.70062950E+00</totfact>
</mgrwt>
</event>
<event>
13      2 +1.4674046e+01 1.86470700e+02 7.54677100e-03 1.16168400e-01
       -1 -1    0    0    0  501 -0.0000000000e+00 +0.0000000000e+00 +3.1438823998e+01 3.1438823998e+01 0.0000000000e+00 0.0000e+00 -1.0000e+00
        1 -1    0    0  503    0 +0.0000000000e+00 -0.0000000000e+00 -1.7165014679e+03 1.7165014679e+03 0.0000000000e+00 0.0000e+00 1.0000e+00
        6  2    1    2  502    0 -8.0103849112e+01 +6.2086412475e+01 -5.2593437823e+02 5.6280003804e+02 1.7281655984e+02 0.0000e+00 0.0000e+00
       24  2    3    3    0    0 -6.8865852043e+01 +4.4778499323e+01 -1.6118682555e+02 1.9743895141e+02 7.9077981915e+01 0.0000e+00 0.0000e+00
       -6  2    1    2    0  501 +5.8232465064e+01 -9.2859159771e+00 -9.8745439002e+02 1.0042033327e+03 1.7286096362e+02 0.0000e+00 0.0000e+00
      -24  2    5    5    0    0 +6.4019540183e+01 -6.7530364797e+01 -6.4750020182e+02 6.5921515007e+02 8.1542939781e+01 0.0000e+00 0.0000e+00
        5  1    3    3  502    0 -1.1237997069e+01 +1.7307913152e+01 -3.6474755268e+02 3.6536108663e+02 4.7000000000e+00 0.0000e+00 -1.0000e+00
      -13  1    4    4    0    0 -3.9235751556e+01 +4.6782206333e+00 -1.3591143418e+02 1.4153885646e+02 0.0000000000e+00 0.0000e+00 1.0000e+00
       14  1    4    4    0    0 -2.9630100486e+01 +4.0100278690e+01 -2.5275391367e+01 5.5900094943e+01 0.0000000000e+00 0.0000e+00 -1.0000e+00
       -5  1    5    5    0  501 -5.7870751184e+00 +5.8244448820e+01 -3.3995418820e+02 3.4498818260e+02 4.7000000000e+00 0.0000e+00 1.0000e+00
       13  1    6    6    0    0 -7.4884027293e-01 -5.6070742015e+01 -2.4175524809e+02 2.4817350554e+02 0.0000000000e+00 0.0000e+00 -1.0000e+00
      -14  1    6    6    0    0 +6.4768380456e+01 -1.1459622782e+01 -4.0574495373e+02 4.1104164453e+02 0.0000000000e+00 0.0000e+00 1.0000e+00
       21  1    1    2  503  502 +2.1871384047e+01 -5.2800496498e+01 -1.7167387570e+02 1.8093692124e+02 0.0000000000e+00 0.0000e+00 -1.0000e+00
<mgrwt>
<rscale>  3 0.18647071E+03</rscale>
<asrwt>0</asrwt>
<pdfrwt beam="2">  1        1 0.26407724E+00 0.18647071E+03</pdfrwt>
<pdfrwt beam="1">  1       -1 0.48367404E-02 0.18647071E+03</pdfrwt>
<totfact> 0.96151961E+02</totfact>
</mgrwt>
</event>
<event>
13      2 +1.4674046e+01 2.08853400e+02 7.54677100e-03 1.14390600e-01
       21 -1    0    0  501  503 +0.0000000000e+00 +0.0000000000e+00 +1.4783856106e+02 1.4783856106e+02 0.0000000000e+00 0.0000e+00 1.0000e+00
        2 -1    0    0  503    0 -0.0000000000e+00 -0.0000000000e+00 -2.0889774398e+03 2.0889774398e+03 0.0000000000e+00 0.0000e+00 1.0000e+00
        6  2    1    2  501    0 -4.0543158793e+01 -1.0026693509e+02 -2.8007022513e+01 2.0524212117e+02 1.7217063917e+02 0.0000e+00 0.0000e+00
       24  2    3    3    0    0 -7.8073915555e+01 -1.1373534408e+02 -5.3707294411e+00 1.5915039189e+02 7.9175360566e+01 0.0000e+00 0.0000e+00
       -6  2    1    2    0  502 -7.6163597744e+00 +1.0729555694e+02 -1.2833412902e+02 2.4611268779e+02 1.8036479963e+02 0.0000e+00 0.0000e+00
      -24  2    5    5    0    0 -4.6956395640e+01 +1.1147417977e+02 -4.3661825999e+01 1.5253604428e+02 8.2033492612e+01 0.0000e+00 0.0000e+00
        5  1    3    3  501    0 +3.7530756763e+01 +1.3468408988e+01 -2.2636293071e+01 4.6091729278e+01 4.7000000000e+00 0.0000e+00 -1.0000e+00
      -13  1    4    4    0    0 -1.6600745063e+01 -8.4890312957e+01 +1.5993842427e+01 8.7964498328e+01 0.0000000000e+00 0.0000e+00 1.0000e+00
       14  1    4    4    0    0 -6.1473170492e+01 -2.8845031120e+01 -2.1364571868e+01 7.1185893559e+01 0.0000000000e+00 0.0000e+00 -1.0000e+00
       -5  1    5    5    0  502 +3.9340035866e+01 -4.1786228252e+00 -8.4672303025e+01 9.3576643508e+01 4.7000000000e+00 0.0000e+00 1.0000e+00
       13  1    6    6    0    0 -5.4806486611e+01 +2.6869349734e+01 -2.1631471912e+01 6.4758269795e+01 0.0000000000e+00 0.0000e+00 -1.0000e+00
      -14  1    6    6    0    0 +7.8500909709e+00 +8.4604830031e+01 -2.2030354087e+01 8.7777774488e+01 0.0000000000e+00 0.0000e+00 1.0000e+00
        2  1    1    2  502    0 +4.8159518567e+01 -7.0286218506e+00 -1.7847977272e+03 1.7854611919e+03 0.0000000000e+00 0.0000e+00 1.0000e+00
<mgrwt>
<rscale>  3 0.20707225E+03</rscale>
<asrwt>0</asrwt>
<pdfrwt beam="1">  1       21 0.22744395E-01 0.20885344E+03</pdfrwt>
<pdfrwt beam="2">  1        2 0.32138113E+00 0.20885344E+03</pdfrwt>
<totfact> 0.15537203E+03</totfact>
</mgrwt>
</event>
<event>
14      3 +1.4674046e+01 3.52680200e+02 7.54677100e-03 1.06159100e-01
       21 -1    0    0  501  503 +0.0000000000e+00 +0.0000000000e+00 +1.2796283520e+02 1.2796283520e+02 0.0000000000e+00 0.0000e+00 1.0000e+00
        2 -1    0    0  504    0 -0.0000000000e+00 -0.0000000000e+00 -2.9725536817e+03 2.9725536817e+03 0.0000000000e+00 0.0000e+00 -1.0000e+00
        6  2    1    2  501    0 -3.0213364349e+02 +2.7034575725e+01 -3.1827782219e+02 4.7283256123e+02 1.7393749466e+02 0.0000e+00 0.0000e+00
       24  2    3    3    0    0 -6.9869158345e+01 -1.8757834025e+01 -7.9435865029e+01 1.3651231749e+02 8.4214016339e+01 0.0000e+00 0.0000e+00
       -6  2    1    2    0  502 +3.1272143437e+02 -8.4701980795e+00 -5.9708757559e+02 6.9580475623e+02 1.7252317556e+02 0.0000e+00 0.0000e+00
      -24  2    5    5    0    0 +7.6218561601e+01 -6.6245396800e+00 -2.6713226873e+02 2.8981262600e+02 8.2331983682e+01 0.0000e+00 0.0000e+00
        5  1    3    3  501    0 -2.3226448514e+02 +4.5792409751e+01 -2.3884195716e+02 3.3632024374e+02 4.7000000000e+00 0.0000e+00 -1.0000e+00
      -13  1    4    4    0    0 -1.8052759337e+01 +1.0936521451e+01 +1.4209259534e+01 2.5444305407e+01 0.0000000000e+00 0.0000e+00 1.0000e+00
       14  1    4    4    0    0 -5.1816399008e+01 -2.9694355476e+01 -9.3645124563e+01 1.1106801208e+02 0.0000000000e+00 0.0000e+00 -1.0000e+00
       -5  1    5    5    0  502 +2.3650287277e+02 -1.8456583995e+00 -3.2995530686e+02 4.0599213023e+02 4.7000000000e+00 0.0000e+00 1.0000e+00
       13  1    6    6    0    0 +5.9257246822e+01 -3.9972730356e+01 -2.0697374260e+02 2.1896888043e+02 0.0000000000e+00 0.0000e+00 -1.0000e+00
      -14  1    6    6    0    0 +1.6961314779e+01 +3.3348190676e+01 -6.0158526129e+01 7.0843745570e+01 0.0000000000e+00 0.0000e+00 1.0000e+00
       21  1    1    2  504  503 +4.4088930653e+01 -4.6881581859e+00 -7.5711390418e+02 7.5841102084e+02 0.0000000000e+00 0.0000e+00 1.0000e+00
        2  1    1    2  502    0 -5.4676721533e+01 -1.3876219460e+01 -1.1721115445e+03 1.1734681786e+03 0.0000000000e+00 0.0000e+00 -1.0000e+00
<mgrwt>
<rscale>  4 0.35250624E+03</rscale>
<asrwt>0</asrwt>
<pdfrwt beam="1">  1       21 0.19686592E-01 0.35268022E+03</pdfrwt>
<pdfrwt beam="2">  1        2 0.45731591E+00 0.35268022E+03</pdfrwt>
<totfact> 0.61371688E+02</totfact>
</mgrwt>
</event>
<event>
13      2 +1.4674046e+01 1.86368700e+02 7.54677100e-03 1.16222500e-01
       21 -1    0    0  501  503 +0.0000000000e+00 +0.0000000000e+00 +3.0568980936e+02 3.0568980936e+02 0.0000000000e+00 0.0000e+00 -1.0000e+00
       -2 -1    0    0    0  501 -0.0000000000e+00 -0.0000000000e+00 -3.5815357403e+02 3.5815357403e+02 0.0000000000e+00 0.0000e+00 -1.0000e+00
        6  2    1    2  502    0 +1.8244747545e+01 -5.4858459638e+01 +1.9970102264e+02 2.6956902047e+02 1.7159439661e+02 0.0000e+00 0.0000e+00
       24  2    3    3    0    0 +3.0942151541e+01 +3.0150872795e+01 +8.0868070992e+01 1.2283398353e+02 8.1743811584e+01 0.0000e+00 0.0000e+00
       -6  2    1    2    0  503 -1.2230800061e+01 +1.1665473091e+02 -1.0467193293e+02 2.3424596294e+02 1.7365782129e+02 0.0000e+00 0.0000e+00
      -24  2    5    5    0    0 +4.4206804220e+01 +6.0549509467e+01 -1.0653808294e+02 1.5450531103e+02 8.3072518838e+01 0.0000e+00 0.0000e+00
        5  1    3    3  502    0 -1.2697403996e+01 -8.5009332432e+01 +1.1883295165e+02 1.4673503694e+02 4.7000000000e+00 0.0000e+00 -1.0000e+00
      -13  1    4    4    0    0 +2.1288590183e+01 -1.8290154555e+01 -9.2003951299e-03 2.8066597768e+01 0.0000000000e+00 0.0000e+00 1.0000e+00
       14  1    4    4    0    0 +9.6535613580e+00 +4.8441027350e+01 +8.0877271387e+01 9.4767385764e+01 0.0000000000e+00 0.0000e+00 -1.0000e+00
       -5  1    5    5    0  503 -5.6437604281e+01 +5.6105221445e+01 +1.8661500057e+00 7.9740651906e+01 4.7000000000e+00 0.0000e+00 1.0000e+00
       13  1    6    6    0    0 -1.4505016855e+01 +1.0764768281e+01 -6.4116364762e+01 6.6612190929e+01 0.0000000000e+00 0.0000e+00 -1.0000e+00
      -14  1    6    6    0    0 +5.8711821075e+01 +4.9784741186e+01 -4.2421718174e+01 8.7893120105e+01 0.0000000000e+00 0.0000e+00 1.0000e+00
       -2  1    1    2    0  502 -6.0139474839e+00 -6.1796271275e+01 -1.4749285437e+02 1.6002839998e+02 0.0000000000e+00 0.0000e+00 -1.0000e+00
<mgrwt>
<rscale>  3 0.18588654E+03</rscale>
<asrwt>0</asrwt>
<pdfrwt beam="1">  1       21 0.47029202E-01 0.18636870E+03</pdfrwt>
<pdfrwt beam="2">  1       -2 0.55100550E-01 0.18636870E+03</pdfrwt>
<totfact> 0.11110999E+03</totfact>
</mgrwt>
</event>
<event>
13      2 +1.4674046e+01 1.76470900e+02 7.54677100e-03 1.17144000e-01
       21 -1    0    0  504  502 +0.0000000000e+00 +0.0000000000e+00 +2.1087203882e+02 2.1087203882e+02 0.0000000000e+00 0.0000e+00 1.0000e+00
       21 -1    0    0  501  503 -0.0000000000e+00 -0.0000000000e+00 -3.1617858583e+02 3.1617858583e+02 0.0000000000e+00 0.0000e+00 1.0000e+00
        6  2    1    2  501    0 +3.5362364612e+00 -5.1468902548e+01 -1.7358314226e+02 2.5066319594e+02 1.7331871690e+02 0.0000e+00 0.0000e+00
       24  2    3    3    0    0 -5.4111711065e+01 -5.8577476560e+01 -1.4942459617e+02 1.8757957661e+02 8.0616310925e+01 0.0000e+00 0.0000e+00
       -6  2    1    2    0  502 -2.7521532762e+00 -3.8150202850e+01 +4.6177723983e+01 1.8408055491e+02 1.7404096121e+02 0.0000e+00 0.0000e+00
      -24  2    5    5    0    0 +5.5792734263e+01 -6.3431126013e+01 +4.9630445520e+01 1.2004431346e+02 6.9362231283e+01 0.0000e+00 0.0000e+00
        5  1    3    3  501    0 +5.7647947526e+01 +7.1085740117e+00 -2.4158546083e+01 6.3083619326e+01 4.7000000000e+00 0.0000e+00 -1.0000e+00
      -13  1    4    4    0    0 +1.1904700690e+01 +5.4010414564e+00 -5.2041949728e+01 5.3658714845e+01 0.0000000000e+00 0.0000e+00 1.0000e+00
       14  1    4    4    0    0 -6.6016411755e+01 -6.3978518016e+01 -9.7382646445e+01 1.3392086177e+02 0.0000000000e+00 0.0000e+00 -1.0000e+00
       -5  1    5    5    0  502 -5.8544887540e+01 +2.5280923163e+01 -3.4527215372e+00 6.4036241450e+01 4.7000000000e+00 0.0000e+00 1.0000e+00
       13  1    6    6    0    0 +2.8352733582e+00 -5.4222518822e+01 +3.4009220718e+01 6.4068302742e+01 0.0000000000e+00 0.0000e+00 -1.0000e+00
      -14  1    6    6    0    0 +5.2957460905e+01 -9.2086071906e+00 +1.5621224802e+01 5.5976010721e+01 0.0000000000e+00 0.0000e+00 1.0000e+00
       21  1    1    2  504  503 -7.8408318497e-01 +8.9619105398e+01 +2.2098871270e+01 9.2306873797e+01 0.0000000000e+00 0.0000e+00 1.0000e+00
<mgrwt>
<rscale>  3 0.17629256E+03</rscale>
<asrwt>0</asrwt>
<pdfrwt beam="1">  1       21 0.32441852E-01 0.17647090E+03</pdfrwt>
<pdfrwt beam="2">  1       21 0.48642859E-01 0.17647090E+03</pdfrwt>
<totfact> 0.37198671E+04</totfact>
</mgrwt>
</event>
<event>
13      3 +1.4674046e+01 4.01807000e+02 7.54677100e-03 1.05134400e-01
       21 -1    0    0  502  503 +0.0000000000e+00 +0.0000000000e+00 +8.4290631889e+02 8.4290631889e+02 0.0000000000e+00 0.0000e+00 -1.0000e+00
        2 -1    0    0  501    0 -0.0000000000e+00 -0.0000000000e+00 -1.5164065651e+03 1.5164065651e+03 0.0000000000e+00 0.0000e+00 1.0000e+00
       24  2    1    2    0    0 -8.7320033054e+01 +9.0295065999e+01 -5.2207092591e+01 1.5585770382e+02 7.6079275806e+01 0.0000e+00 0.0000e+00
       -6  2    1    2    0  504 +2.7032949863e+02 -2.1938465304e+02 -1.7420636435e+02 4.2603100956e+02 1.7305172611e+02 0.0000e+00 0.0000e+00
      -24  2    4    4    0    0 +2.4627689215e+02 -1.1486855020e+02 -1.1903973313e+02 3.0533473443e+02 7.2192454952e+01 0.0000e+00 0.0000e+00
        5  1    1    2  501    0 -1.0724875487e+01 +8.5158507874e+00 +2.1125559799e+02 2.1175117556e+02 4.7000000000e+00 0.0000e+00 -1.0000e+00
      -13  1    3    3    0    0 -1.6581033059e+01 +8.9037920069e+00 +1.8912517893e+01 2.6681294993e+01 0.0000000000e+00 0.0000e+00 1.0000e+00
       14  1    3    3    0    0 -7.0738999994e+01 +8.1391273992e+01 -7.1119610484e+01 1.2917640883e+02 0.0000000000e+00 0.0000e+00 -1.0000e+00
       -5  1    4    4    0  504 +2.4052606482e+01 -1.0451610284e+02 -5.5166631216e+01 1.2069627513e+02 4.7000000000e+00 0.0000e+00 1.0000e+00
       13  1    5    5    0    0 +2.1034849199e+02 -1.1726321950e+02 -1.2051325424e+02 2.6929648192e+02 0.0000000000e+00 0.0000e+00 -1.0000e+00
      -14  1    5    5    0    0 +3.5928400160e+01 +2.3946692992e+00 +1.4735211042e+00 3.6038252505e+01 0.0000000000e+00 0.0000e+00 1.0000e+00
       21  1    1    2  504  503 -1.0584219817e+02 +1.1942360568e+02 +4.3859595200e+02 4.6672366302e+02 0.0000000000e+00 0.0000e+00 -1.0000e+00
        2  1    1    2  502    0 -6.6442391922e+01 +1.1501305715e+00 -1.0969383393e+03 1.0989493321e+03 0.0000000000e+00 0.0000e+00 1.0000e+00
<mgrwt>
<rscale>  4 0.37889329E+03</rscale>
<asrwt>0</asrwt>
<pdfrwt beam="1">  1       21 0.12967790E+00 0.40180701E+03</pdfrwt>
<pdfrwt beam="2">  1        2 0.23329332E+00 0.40180701E+03</pdfrwt>
<totfact> 0.64692268E+01</totfact>
</mgrwt>
</event>
<event>
14      3 +1.4674046e+01 2.20945800e+02 7.54677100e-03 1.13336400e-01
       21 -1    0    0  504  502 +0.0000000000e+00 +0.0000000000e+00 +6.1764283817e+02 6.1764283817e+02 0.0000000000e+00 0.0000e+00 -1.0000e+00
       21 -1    0    0  501  503 -0.0000000000e+00 -0.0000000000e+00 -1.0480293932e+02 1.0480293932e+02 0.0000000000e+00 0.0000e+00 -1.0000e+00
        6  2    1    2  501    0 +7.6565353492e+00 +1.5592595286e+02 +2.7324112731e+02 3.5974520286e+02 1.7431113567e+02 0.0000e+00 0.0000e+00
       24  2    3    3    0    0 +9.1648399841e+00 +3.4703615669e+00 +9.4285049137e+01 1.2460194820e+02 8.0869878833e+01 0.0000e+00 0.0000e+00
       -6  2    1    2    0  502 +1.8543403346e+01 -1.1693321028e+02 +2.3584053230e+02 3.1557313969e+02 1.7305610751e+02 0.0000e+00 0.0000e+00
      -24  2    5    5    0    0 -3.2530827649e+01 -2.0453742572e+01 +7.9973351017e+01 1.2005450858e+02 8.0874828129e+01 0.0000e+00 0.0000e+00
        5  1    3    3  501    0 -1.5083046348e+00 +1.5245559129e+02 +1.7895607817e+02 2.3514325466e+02 4.7000000000e+00 0.0000e+00 -1.0000e+00
      -13  1    4    4    0    0 -3.3386929162e+01 +2.8310957638e+00 +2.0088581431e+01 3.9067291255e+01 0.0000000000e+00 0.0000e+00 1.0000e+00
       14  1    4    4    0    0 +4.2551769146e+01 +6.3926580315e-01 +7.4196467706e+01 8.5534656943e+01 0.0000000000e+00 0.0000e+00 -1.0000e+00
       -5  1    5    5    0  505 +1.5940293135e+01 -2.8223352136e+01 +8.4801995681e+01 9.0907200058e+01 4.7000000000e+00 0.0000e+00 1.0000e+00
       13  1    6    6    0    0 -1.7771721842e+01 -4.9923039906e+01 +6.4972928830e+01 8.3842861899e+01 0.0000000000e+00 0.0000e+00 -1.0000e+00
      -14  1    6    6    0    0 -1.4759105807e+01 +2.9469297334e+01 +1.5000422187e+01 3.6211646681e+01 0.0000000000e+00 0.0000e+00 1.0000e+00
       21  1    1    2  504  503 -2.6199938695e+01 -3.8992742578e+01 +3.7582392496e+00 4.7127434935e+01 0.0000000000e+00 0.0000e+00 -1.0000e+00
       21  1    5    5  505  502 +3.5133937860e+01 -6.8256115573e+01 +7.1065185601e+01 1.0461143105e+02 0.0000000000e+00 0.0000e+00 1.0000e+00
<mgrwt>
<rscale>  4 0.22069823E+03</rscale>
<asrwt>0</asrwt>
<pdfrwt beam="1">  1       21 0.95021973E-01 0.22094584E+03</pdfrwt>
<pdfrwt beam="2">  1       21 0.16123529E-01 0.22094584E+03</pdfrwt>
<totfact> 0.31342660E+04</totfact>
</mgrwt>
</event>
<event>
12      1 +1.4674046e+01 3.85399600e+02 7.54677100e-03 1.04897000e-01
       21 -1    0    0  501  502 +0.0000000000e+00 +0.0000000000e+00 +9.6030709613e+02 9.6030709613e+02 0.0000000000e+00 0.0000e+00 1.0000e+00
       21 -1    0    0  502  503 -0.0000000000e+00 -0.0000000000e+00 -8.7007306947e+02 8.7007306947e+02 0.0000000000e+00 0.0000e+00 -1.0000e+00
       -6  2    1    2    0  503 -2.9578511044e+02 +1.7613994819e+02 -7.8478649972e+02 8.7424534795e+02 1.7291895608e+02 0.0000e+00 0.0000e+00
      -24  2    3    3    0    0 -3.1084871405e+02 +1.7795091101e+02 -7.6752775199e+02 8.5079015422e+02 8.0321769705e+01 0.0000e+00 0.0000e+00
        6  2    1    2  501    0 +2.9578511044e+02 -1.7613994819e+02 +8.7502052639e+02 9.5613481764e+02 1.7325921334e+02 0.0000e+00 0.0000e+00
       24  2    5    5    0    0 +1.5108964407e+02 -1.3526413466e+02 +3.5312398202e+02 4.1299054295e+02 6.8848930351e+01 0.0000e+00 0.0000e+00
        5  1    5    5  501    0 +1.4469546637e+02 -4.0875813522e+01 +5.2189654436e+02 5.4314427470e+02 4.7000000000e+00 0.0000e+00 -1.0000e+00
      -13  1    6    6    0    0 +3.5774105191e+01 -7.0207271127e+01 +1.6611988212e+02 1.8386044370e+02 0.0000000000e+00 0.0000e+00 1.0000e+00
       14  1    6    6    0    0 +1.1531553888e+02 -6.5056863538e+01 +1.8700409990e+02 2.2913009925e+02 0.0000000000e+00 0.0000e+00 -1.0000e+00
       -5  1    3    3    0  503 +1.5063603607e+01 -1.8109628221e+00 -1.7258747732e+01 2.3455193737e+01 4.7000000000e+00 0.0000e+00 1.0000e+00
       13  1    4    4    0    0 -1.1368463205e+02 +8.5515749841e+01 -3.8761935604e+02 4.1289938752e+02 0.0000000000e+00 0.0000e+00 -1.0000e+00
      -14  1    4    4    0    0 -1.9716408200e+02 +9.2435161168e+01 -3.7990839594e+02 4.3789076670e+02 0.0000000000e+00 0.0000e+00 1.0000e+00
<mgrwt>
<rscale>  2 0.38536140E+03</rscale>
<asrwt>0</asrwt>
<pdfrwt beam="1">  1       21 0.14773955E+00 0.38539962E+03</pdfrwt>
<pdfrwt beam="2">  1       21 0.13385740E+00 0.38539962E+03</pdfrwt>
<totfact> 0.10414335E+02</totfact>
</mgrwt>
</event>
<event>
14      3 +1.4674046e+01 2.33984800e+02 7.54677100e-03 1.12416600e-01
       21 -1    0    0  501  502 +0.0000000000e+00 +0.0000000000e+00 +7.3313578131e+02 7.3313578131e+02 0.0000000000e+00 0.0000e+00 1.0000e+00
       21 -1    0    0  504  503 -0.0000000000e+00 -0.0000000000e+00 -4.3469552034e+02 4.3469552034e+02 0.0000000000e+00 0.0000e+00 1.0000e+00
        6  2    1    2  501    0 -1.2282492313e+02 -9.6699336801e+01 +6.2725641501e+02 6.6910718700e+02 1.7267626947e+02 0.0000e+00 0.0000e+00
       24  2    3    3    0    0 -1.6478387842e+01 -5.4110753105e+00 +3.3337679082e+02 3.4348400636e+02 8.0872498203e+01 0.0000e+00 0.0000e+00
       -6  2    1    2    0  505 +8.0907774525e+01 +1.2035180459e+02 -3.1330028582e+02 3.8705965936e+02 1.7500710261e+02 0.0000e+00 0.0000e+00
      -24  2    5    5    0    0 +1.6226080917e+01 +7.0308651868e+01 -6.8438620775e+01 1.2885941996e+02 8.1940912053e+01 0.0000e+00 0.0000e+00
        5  1    3    3  501    0 -1.0634653529e+02 -9.1288261491e+01 +2.9387962419e+02 3.2562318064e+02 4.7000000000e+00 0.0000e+00 -1.0000e+00
      -13  1    4    4    0    0 -3.8864391694e+01 -5.4984766343e+00 +7.9900948861e+01 8.9021546919e+01 0.0000000000e+00 0.0000e+00 1.0000e+00
       14  1    4    4    0    0 +2.2386003852e+01 +8.7401323766e-02 +2.5347584196e+02 2.5446245944e+02 0.0000000000e+00 0.0000e+00 -1.0000e+00
       -5  1    5    5    0  505 +6.4681693608e+01 +5.0043152720e+01 -2.4486166504e+02 2.5820023941e+02 4.7000000000e+00 0.0000e+00 1.0000e+00
       13  1    6    6    0    0 +4.4985252348e+01 +1.8393040089e+01 -2.1277634412e+01 5.3053883729e+01 0.0000000000e+00 0.0000e+00 -1.0000e+00
      -14  1    6    6    0    0 -2.8759171431e+01 +5.1915611779e+01 -4.7160986364e+01 7.5805536227e+01 0.0000000000e+00 0.0000e+00 1.0000e+00
       21  1    1    2  504  502 +3.4379396377e+01 +3.5997878742e+01 -8.8539309230e-01 4.9785279854e+01 0.0000000000e+00 0.0000e+00 -1.0000e+00
       21  1    1    2  505  503 +7.5377522278e+00 -5.9650346529e+01 -1.4630475130e+01 6.1879175433e+01 0.0000000000e+00 0.0000e+00 1.0000e+00
<mgrwt>
<rscale>  4 0.23354906E+03</rscale>
<asrwt>0</asrwt>
<pdfrwt beam="1">  1       21 0.11279012E+00 0.23398482E+03</pdfrwt>
<pdfrwt beam="2">  1       21 0.66876234E-01 0.23398482E+03</pdfrwt>
<totfact> 0.12121073E+03</totfact>
</mgrwt>
</event>
<event>
13      2 +1.4674046e+01 1.79891100e+02 7.54677100e-03 1.16793300e-01
       21 -1    0    0  501  502 +0.0000000000e+00 +0.0000000000e+00 +8.5327233896e+02 8.5327233896e+02 0.0000000000e+00 0.0000e+00 1.0000e+00
       21 -1    0    0  504  503 -0.0000000000e+00 -0.0000000000e+00 -4.4704074896e+01 4.4704074896e+01 0.0000000000e+00 0.0000e+00 1.0000e+00
       -6  2    1    2    0  503 -3.8697271102e+01 -4.9297361953e+01 +4.0583297674e+02 4.4528749480e+02 1.7219999805e+02 0.0000e+00 0.0000e+00
      -24  2    3    3    0    0 -1.9732841226e+01 +4.9189544972e+00 +3.4905910445e+02 3.6438989814e+02 1.0258732053e+02 0.0000e+00 0.0000e+00
        6  2    1    2  501    0 +1.0555871816e+01 +4.1627146667e+01 +3.5210169467e+02 3.9425492842e+02 1.7209619237e+02 0.0000e+00 0.0000e+00
       24  2    5    5    0    0 +2.5200929546e+01 -3.6169124671e+01 +1.4090882842e+02 1.6866402811e+02 8.1541179913e+01 0.0000e+00 0.0000e+00
        5  1    5    5  501    0 -1.4645057730e+01 +7.7796271338e+01 +2.1119286625e+02 2.2559090032e+02 4.7000000000e+00 0.0000e+00 -1.0000e+00
      -13  1    6    6    0    0 -2.4895622315e+01 -4.3980217406e+00 +7.8891250338e+01 8.2843008067e+01 0.0000000000e+00 0.0000e+00 1.0000e+00
       14  1    6    6    0    0 +5.0096551861e+01 -3.1771102931e+01 +6.2017578081e+01 8.5821020041e+01 0.0000000000e+00 0.0000e+00 -1.0000e+00
       -5  1    3    3    0  503 -1.8964429876e+01 -5.4216316450e+01 +5.6773872287e+01 8.0897596654e+01 4.7000000000e+00 0.0000e+00 1.0000e+00
       13  1    4    4    0    0 -3.3685664281e+01 +1.4167294865e+01 +3.7428163367e+01 5.2309689684e+01 0.0000000000e+00 0.0000e+00 -1.0000e+00
      -14  1    4    4    0    0 +1.3952823055e+01 -9.2483403680e+00 +3.1163094108e+02 3.1208020846e+02 0.0000000000e+00 0.0000e+00 1.0000e+00
       21  1    1    2  504  502 +2.8141399286e+01 +7.6702152861e+00 +5.0633592657e+01 5.8433990636e+01 0.0000000000e+00 0.0000e+00 1.0000e+00
<mgrwt>
<rscale>  3 0.17986625E+03</rscale>
<asrwt>0</asrwt>
<pdfrwt beam="1">  1       21 0.13127266E+00 0.17989109E+03</pdfrwt>
<pdfrwt beam="2">  1       21 0.68775506E-02 0.17989109E+03</pdfrwt>
<totfact> 0.66189617E+04</totfact>
</mgrwt>
</event>
<event>
14      3 +1.4674046e+01 1.94247800e+02 7.54677100e-03 1.15488700e-01
       21 -1    0    0  505  502 +0.0000000000e+00 +0.0000000000e+00 +1.5612747310e+03 1.5612747310e+03 0.0000000000e+00 0.0000e+00 1.0000e+00
       21 -1    0    0  502  503 -0.0000000000e+00 -0.0000000000e+00 -3.0486440869e+02 3.0486440869e+02 0.0000000000e+00 0.0000e+00 -1.0000e+00
        6  2    1    2  501    0 +1.2137835665e+02 +2.3908056020e+01 -7.3385115786e+00 2.1334663019e+02 1.7366240311e+02 0.0000e+00 0.0000e+00
       24  2    3    3    0    0 +9.1977936153e+01 -2.8550017852e+01 -5.4345774616e+01 1.3687436713e+02 8.0660305597e+01 0.0000e+00 0.0000e+00
       -6  2    1    2    0  504 -5.4893907784e+01 +2.3088655024e+01 -7.5618750553e+01 1.9944680294e+02 1.7468372754e+02 0.0000e+00 0.0000e+00
      -24  2    5    5    0    0 -5.5567131749e+01 +4.8209219733e+01 +1.5669434108e+01 1.0464638807e+02 7.2756445574e+01 0.0000e+00 0.0000e+00
        5  1    3    3  501    0 +2.9400420496e+01 +5.2458073872e+01 +4.7007263038e+01 7.6472263063e+01 4.7000000000e+00 0.0000e+00 -1.0000e+00
      -13  1    4    4    0    0 +5.5729490369e+01 +5.5890728522e+00 -6.5156168442e+01 8.5920545379e+01 0.0000000000e+00 0.0000e+00 1.0000e+00
       14  1    4    4    0    0 +3.6248445785e+01 -3.4139090704e+01 +1.0810393826e+01 5.0953821746e+01 0.0000000000e+00 0.0000e+00 -1.0000e+00
       -5  1    5    5    0  504 +6.7322396448e-01 -2.5120564709e+01 -9.1288184661e+01 9.4800414876e+01 4.7000000000e+00 0.0000e+00 1.0000e+00
       13  1    6    6    0    0 -1.9068826694e+01 -1.7162696078e+01 +1.5109326993e+01 2.9773646910e+01 0.0000000000e+00 0.0000e+00 -1.0000e+00
      -14  1    6    6    0    0 -3.6498305054e+01 +6.5371915811e+01 +5.6010711566e-01 7.4872741159e+01 0.0000000000e+00 0.0000e+00 1.0000e+00
       21  1    1    2  504  503 -1.9571585226e+01 -4.2415354329e+01 -4.6948260767e+01 6.6228758257e+01 0.0000000000e+00 0.0000e+00 -1.0000e+00
       21  1    1    2  505  501 -4.6912863639e+01 -4.5813567143e+00 +1.3863158452e+03 1.3871169483e+03 0.0000000000e+00 0.0000e+00 1.0000e+00
<mgrwt>
<rscale>  4 0.19401792E+03</rscale>
<asrwt>0</asrwt>
<pdfrwt beam="1">  1       21 0.24019611E+00 0.19424781E+03</pdfrwt>
<pdfrwt beam="2">  1       21 0.46902217E-01 0.19424781E+03</pdfrwt>
<totfact> 0.32991944E+02</totfact>
</mgrwt>
</event>
<event>
12      1 +1.4674046e+01 2.23835000e+02 7.54677100e-03 1.13111100e-01
       21 -1    0    0  501  502 +0.0000000000e+00 +0.0000000000e+00 +1.3503874119e+02 1.3503874119e+02 0.0000000000e+00 0.0000e+00 1.0000e+00
       21 -1    0    0  502  503 -0.0000000000e+00 -0.0000000000e+00 -3.7118742601e+02 3.7118742601e+02 0.0000000000e+00 0.0000e+00 1.0000e+00
        6  2    1    2  501    0 -1.2461403865e+02 +6.5863991350e+01 -1.0728300995e+02 2.4794637358e+02 1.7349650129e+02 0.0000e+00 0.0000e+00
       24  2    3    3    0    0 -1.6888839423e-02 +4.2573989777e+01 -1.7996608803e+01 9.2830206321e+01 8.0504809710e+01 0.0000e+00 0.0000e+00
       -6  2    1    2    0  503 +1.2461403865e+02 -6.5863991350e+01 -1.2886567487e+02 2.5827979363e+02 1.7388319543e+02 0.0000e+00 0.0000e+00
      -24  2    5    5    0    0 +1.3159412985e+02 +1.1568391744e+00 -7.5392205976e+01 1.7212867482e+02 8.1399893645e+01 0.0000e+00 0.0000e+00
        5  1    3    3  501    0 -1.2459714981e+02 +2.3290001573e+01 -8.9286401144e+01 1.5511616726e+02 4.7000000000e+00 0.0000e+00 -1.0000e+00
      -13  1    4    4    0    0 -3.3733371410e+01 -1.5698647669e+00 +1.9099087424e+00 3.3823846226e+01 0.0000000000e+00 0.0000e+00 1.0000e+00
       14  1    4    4    0    0 +3.3716482571e+01 +4.4143854544e+01 -1.9906517545e+01 5.9006360095e+01 0.0000000000e+00 0.0000e+00 -1.0000e+00
       -5  1    5    5    0  503 -6.9800911928e+00 -6.7020830524e+01 -5.3473468897e+01 8.6151118815e+01 4.7000000000e+00 0.0000e+00 1.0000e+00
       13  1    6    6    0    0 +1.2211120972e+02 +1.1121700353e+01 -8.9971251557e+01 1.5208440375e+02 0.0000000000e+00 0.0000e+00 -1.0000e+00
      -14  1    6    6    0    0 +9.4829201261e+00 -9.9648611789e+00 +1.4579045581e+01 2.0044271064e+01 0.0000000000e+00 0.0000e+00 1.0000e+00
<mgrwt>
<rscale>  2 0.22375986E+03</rscale>
<asrwt>0</asrwt>
<pdfrwt beam="1">  1       21 0.20775191E-01 0.22383496E+03</pdfrwt>
<pdfrwt beam="2">  1       21 0.57105756E-01 0.22383496E+03</pdfrwt>
<totfact> 0.61054872E+04</totfact>
</mgrwt>
</event>
<event>
13      2 +1.4674046e+01 4.95644100e+02 7.54677100e-03 1.04567900e-01
        2 -1    0    0  501    0 -0.0000000000e+00 +0.0000000000e+00 +1.3973055752e+03 1.3973055752e+03 0.0000000000e+00 0.0000e+00 1.0000e+00
       21 -1    0    0  502  503 +0.0000000000e+00 -0.0000000000e+00 -2.5616619814e+02 2.5616619814e+02 0.0000000000e+00 0.0000e+00 1.0000e+00
        6  2    1    2  501    0 +2.1678512827e+02 +4.0116028323e+02 +6.5239778038e+02 8.1468921880e+02 1.7369598352e+02 0.0000e+00 0.0000e+00
       24  2    3    3    0    0 +2.2552242580e+02 +3.1036194407e+02 +5.6851842582e+02 6.9067907855e+02 8.1483054581e+01 0.0000e+00 0.0000e+00
       -6  2    1    2    0  503 +9.0850509233e+01 -2.9513209479e+01 +1.5154987168e+02 2.5017445716e+02 1.7462832200e+02 0.0000e+00 0.0000e+00
      -24  2    5    5    0    0 +9.7727496203e+01 -3.4729990437e+00 +1.7355585274e+02 2.1507832188e+02 8.1082213130e+01 0.0000e+00 0.0000e+00
        5  1    3    3  501    0 -8.7372975214e+00 +9.0798339164e+01 +8.3879354566e+01 1.2401014025e+02 4.7000000000e+00 0.0000e+00 -1.0000e+00
      -13  1    4    4    0    0 +9.5505348450e+01 +2.0009833384e+02 +3.2318103538e+02 3.9192677431e+02 0.0000000000e+00 0.0000e+00 1.0000e+00
       14  1    4    4    0    0 +1.3001707735e+02 +1.1026361023e+02 +2.4533739043e+02 2.9875230424e+02 0.0000000000e+00 0.0000e+00 -1.0000e+00
       -5  1    5    5    0  503 -6.8769869694e+00 -2.6040210435e+01 -2.2005981057e+01 3.5096135280e+01 4.7000000000e+00 0.0000e+00 1.0000e+00
       13  1    6    6    0    0 +5.5768969290e+01 -4.1155137598e+01 +8.0092336879e+01 1.0591839176e+02 0.0000000000e+00 0.0000e+00 -1.0000e+00
      -14  1    6    6    0    0 +4.1958526912e+01 +3.7682138554e+01 +9.3463515858e+01 1.0915993012e+02 0.0000000000e+00 0.0000e+00 1.0000e+00
        2  1    1    2  502    0 -3.0763563751e+02 -3.7164707375e+02 +3.3719172500e+02 5.8860809738e+02 0.0000000000e+00 0.0000e+00 1.0000e+00
<mgrwt>
<rscale>  3 0.39456323E+03</rscale>
<asrwt>0</asrwt>
<pdfrwt beam="2">  1       21 0.39410185E-01 0.49564409E+03</pdfrwt>
<pdfrwt beam="1">  1        2 0.21497008E+00 0.49564409E+03</pdfrwt>
<totfact> 0.11025505E+03</totfact>
</mgrwt>
</event>
<event>
12      2 +1.4674046e+01 1.98731700e+02 7.54677100e-03 1.15279000e-01
       21 -1    0    0  504  502 +0.0000000000e+00 +0.0000000000e+00 +1.7674976695e+02 1.7674976695e+02 0.0000000000e+00 0.0000e+00 1.0000e+00
       21 -1    0    0  502  503 -0.0000000000e+00 -0.0000000000e+00 -2.9671154549e+02 2.9671154549e+02 0.0000000000e+00 0.0000e+00 1.0000e+00
       -6  2    1    2    0  503 +1.0723541346e+02 -7.8588931269e+01 -3.5825969499e+01 2.2058198833e+02 1.7232892812e+02 0.0000e+00 0.0000e+00
      -24  2    3    3    0    0 +1.3949950544e+01 -3.4801386481e+01 +3.4782898444e+01 9.5573073039e+01 8.0738000005e+01 0.0000e+00 0.0000e+00
       24  2    1    2    0    0 -4.7321897925e+01 -1.1534038708e+01 -9.7041696650e+01 1.3501045468e+02 8.0239241726e+01 0.0000e+00 0.0000e+00
        5  1    1    2  501    0 -1.4261147750e+01 +5.9173099872e+01 +1.4282684324e+01 6.2697058585e+01 4.7000000000e+00 0.0000e+00 -1.0000e+00
      -13  1    5    5    0    0 -3.9600293227e+01 -4.1681686515e+01 -8.2755662321e+01 1.0076728567e+02 0.0000000000e+00 0.0000e+00 1.0000e+00
       14  1    5    5    0    0 -7.7216046984e+00 +3.0147647807e+01 -1.4286034329e+01 3.4243169016e+01 0.0000000000e+00 0.0000e+00 -1.0000e+00
       -5  1    3    3    0  503 +9.3285462911e+01 -4.3787544788e+01 -7.0608867944e+01 1.2500891529e+02 4.7000000000e+00 0.0000e+00 1.0000e+00
       13  1    4    4    0    0 -1.8548396388e+01 +1.0012088175e+01 -1.0964505861e+01 2.3759320423e+01 0.0000000000e+00 0.0000e+00 -1.0000e+00
      -14  1    4    4    0    0 +3.2498346932e+01 -4.4813474657e+01 +4.5747404305e+01 7.1813752616e+01 0.0000000000e+00 0.0000e+00 1.0000e+00
       21  1    1    2  504  501 -4.5652367780e+01 +3.0949870105e+01 -1.3767967178e+00 5.5171810852e+01 0.0000000000e+00 0.0000e+00 1.0000e+00
<mgrwt>
<rscale>  3 0.19642615E+03</rscale>
<asrwt>0</asrwt>
<pdfrwt beam="1">  1       21 0.27192272E-01 0.19873167E+03</pdfrwt>
<pdfrwt beam="2">  1       21 0.45647930E-01 0.19873167E+03</pdfrwt>
<totfact> 0.59153098E+04</totfact>
</mgrwt>
</event>
<event>
12      1 +1.4674046e+01 3.40414100e+02 7.54677100e-03 1.06665000e-01
       21 -1    0    0  503  502 +0.0000000000e+00 +0.0000000000e+00 +1.6179244791e+02 1.6179244791e+02 0.0000000000e+00 0.0000e+00 -1.0000e+00
       21 -1    0    0  501  503 -0.0000000000e+00 -0.0000000000e+00 -1.0138530778e+03 1.0138530778e+03 0.0000000000e+00 0.0000e+00 1.0000e+00
        6  2    1    2  501    0 +2.1318455649e+02 -2.0129275845e+02 -7.4496459824e+02 8.1905678476e+02 1.7296049922e+02 0.0000e+00 0.0000e+00
       24  2    3    3    0    0 +1.2041685464e+02 -1.5881124705e+02 -3.4283552378e+02 4.0415871554e+02 7.8018202395e+01 0.0000e+00 0.0000e+00
       -6  2    1    2    0  502 -2.1318455649e+02 +2.0129275845e+02 -1.0709603162e+02 3.5658874093e+02 1.7239356263e+02 0.0000e+00 0.0000e+00
      -24  2    5    5    0    0 -5.5643919871e+01 +1.0171578279e+02 +1.4333479283e+00 1.4086822152e+02 7.9996594056e+01 0.0000e+00 0.0000e+00
        5  1    3    3  501    0 +9.2767701844e+01 -4.2481511401e+01 -4.0212907446e+02 4.1489806922e+02 4.7000000000e+00 0.0000e+00 -1.0000e+00
      -13  1    4    4    0    0 +1.2031767431e+01 -3.8997288571e+01 -1.3427600681e+02 1.4034100594e+02 0.0000000000e+00 0.0000e+00 1.0000e+00
       14  1    4    4    0    0 +1.0838508721e+02 -1.1981395848e+02 -2.0855951697e+02 2.6381770959e+02 0.0000000000e+00 0.0000e+00 -1.0000e+00
       -5  1    5    5    0  502 -1.5754063662e+02 +9.9576975666e+01 -1.0852937955e+02 2.1572051941e+02 4.7000000000e+00 0.0000e+00 1.0000e+00
       13  1    6    6    0    0 -6.0503400025e+01 +1.0804787007e+02 -1.2856605161e+01 1.2450018449e+02 0.0000000000e+00 0.0000e+00 -1.0000e+00
      -14  1    6    6    0    0 +4.8594801538e+00 -6.3320872878e+00 +1.4289953089e+01 1.6368037025e+01 0.0000000000e+00 0.0000e+00 1.0000e+00
<mgrwt>
<rscale>  2 0.34034216E+03</rscale>
<asrwt>0</asrwt>
<pdfrwt beam="1">  1       21 0.24891146E-01 0.34041411E+03</pdfrwt>
<pdfrwt beam="2">  1       21 0.15597740E+00 0.34041411E+03</pdfrwt>
<totfact> 0.37302611E+03</totfact>
</mgrwt>
</event>
<event>
12      1 +1.4674046e+01 1.94397200e+02 7.54677100e-03 1.15509900e-01
       21 -1    0    0  503  502 +0.0000000000e+00 +0.0000000000e+00 +2.3751553222e+02 2.3751553222e+02 0.0000000000e+00 0.0000e+00 -1.0000e+00
       21 -1    0    0  501  503 -0.0000000000e+00 -0.0000000000e+00 -3.0765503847e+02 3.0765503847e+02 0.0000000000e+00 0.0000e+00 -1.0000e+00
        6  2    1    2  501    0 +4.7603353111e+01 +6.7854140300e+01 -2.2564476755e+02 2.9622852994e+02 1.7310550899e+02 0.0000e+00 0.0000e+00
       24  2    3    3    0    0 +4.0878504168e+01 -3.1427751596e+01 -9.4531520946e+01 1.3156253136e+02 7.5589255408e+01 0.0000e+00 0.0000e+00
       -6  2    1    2    0  502 -4.7603353111e+01 -6.7854140300e+01 +1.5550526130e+02 2.4894204075e+02 1.7584080805e+02 0.0000e+00 0.0000e+00
      -24  2    5    5    0    0 +1.1665482312e+01 -7.6957509394e+01 +1.5181308586e+02 1.8868103892e+02 8.0590195929e+01 0.0000e+00 0.0000e+00
        5  1    3    3  501    0 +6.7248489439e+00 +9.9281891896e+01 -1.3111324660e+02 1.6466599858e+02 4.7000000000e+00 0.0000e+00 -1.0000e+00
      -13  1    4    4    0    0 +5.9386537662e+01 -3.8688212570e+01 -8.0341227605e+01 1.0713660206e+02 0.0000000000e+00 0.0000e+00 1.0000e+00
       14  1    4    4    0    0 -1.8508033494e+01 +7.2604609746e+00 -1.4190293341e+01 2.4425929306e+01 0.0000000000e+00 0.0000e+00 -1.0000e+00
       -5  1    5    5    0  502 -5.9268835423e+01 +9.1033690945e+00 +3.6921754364e+00 6.0261001823e+01 4.7000000000e+00 0.0000e+00 1.0000e+00
       13  1    6    6    0    0 +3.3447729719e+01 -1.6040059190e+00 +4.1538584112e+01 5.3355200575e+01 0.0000000000e+00 0.0000e+00 -1.0000e+00
      -14  1    6    6    0    0 -2.1782247407e+01 -7.5353503475e+01 +1.1027450175e+02 1.3532583835e+02 0.0000000000e+00 0.0000e+00 1.0000e+00
<mgrwt>
<rscale>  2 0.19377652E+03</rscale>
<asrwt>0</asrwt>
<pdfrwt beam="1">  1       21 0.36540851E-01 0.19439715E+03</pdfrwt>
<pdfrwt beam="2">  1       21 0.47331544E-01 0.19439715E+03</pdfrwt>
<totfact> 0.30814271E+04</totfact>
</mgrwt>
</event>
<event>
14      3 +1.4674046e+01 2.25699500e+02 7.54677100e-03 1.13055900e-01
       21 -1    0    0  502  503 +0.0000000000e+00 +0.0000000000e+00 +3.1632858599e+02 3.1632858599e+02 0.0000000000e+00 0.0000e+00 1.0000e+00
        2 -1    0    0  501    0 -0.0000000000e+00 -0.0000000000e+00 -7.4822127794e+02 7.4822127794e+02 0.0000000000e+00 0.0000e+00 -1.0000e+00
        6  2    1    2  501    0 +5.7316356174e+01 -1.3230217951e+02 -2.4711667984e+02 3.3192619041e+02 1.6828342472e+02 0.0000e+00 0.0000e+00
       24  2    3    3    0    0 +8.8745694978e+00 -1.2794838157e+02 -2.3801960157e+02 2.8222298039e+02 8.0913123761e+01 0.0000e+00 0.0000e+00
       -6  2    1    2    0  504 -1.7740016080e+00 +1.3327093834e+02 +2.7515370578e+01 2.2121290141e+02 1.7439541865e+02 0.0000e+00 0.0000e+00
      -24  2    5    5    0    0 +1.6380821498e+01 +6.0535812253e+01 -5.4012867620e+01 1.1035741083e+02 7.2996249072e+01 0.0000e+00 0.0000e+00
        5  1    3    3  501    0 +4.8441786676e+01 -4.3537979361e+00 -9.0970782662e+00 4.9703210015e+01 4.7000000000e+00 0.0000e+00 -1.0000e+00
      -13  1    4    4    0    0 -1.8651490312e+01 -1.9667943972e+01 -1.1099442523e+01 2.9289993774e+01 0.0000000000e+00 0.0000e+00 1.0000e+00
       14  1    4    4    0    0 +2.7526059810e+01 -1.0828043760e+02 -2.2692015905e+02 2.5293298662e+02 0.0000000000e+00 0.0000e+00 -1.0000e+00
       -5  1    5    5    0  504 -1.8154823106e+01 +7.2735126086e+01 +8.1528238198e+01 1.1085549058e+02 4.7000000000e+00 0.0000e+00 1.0000e+00
       13  1    6    6    0    0 +1.9609763171e+01 -1.0442958041e+01 -2.5439169712e+01 3.3774983936e+01 0.0000000000e+00 0.0000e+00 -1.0000e+00
      -14  1    6    6    0    0 -3.2289416732e+00 +7.0978770295e+01 -2.8573697909e+01 7.6582426894e+01 0.0000000000e+00 0.0000e+00 1.0000e+00
       21  1    1    2  504  503 -2.2494255092e+01 +1.6200086684e+01 +1.4730522192e+02 1.4989083603e+02 0.0000000000e+00 0.0000e+00 1.0000e+00
        2  1    1    2  502    0 -3.3048099474e+01 -1.7168845512e+01 -3.5959660461e+02 3.6151993608e+02 0.0000000000e+00 0.0000e+00 -1.0000e+00
<mgrwt>
<rscale>  4 0.22451807E+03</rscale>
<asrwt>0</asrwt>
<pdfrwt beam="1">  1       21 0.48665936E-01 0.22569947E+03</pdfrwt>
<pdfrwt beam="2">  1        2 0.11511097E+00 0.22569947E+03</pdfrwt>
<totfact> 0.19365397E+03</totfact>
</mgrwt>
</event>
<event>
12      1 +1.4674046e+01 2.56179500e+02 7.54677100e-03 1.10951200e-01
       21 -1    0    0  501  502 +0.0000000000e+00 +0.0000000000e+00 +3.2589704856e+02 3.2589704856e+02 0.0000000000e+00 0.0000e+00 -1.0000e+00
       21 -1    0    0  502  503 -0.0000000000e+00 -0.0000000000e+00 -2.7264509859e+02 2.7264509859e+02 0.0000000000e+00 0.0000e+00 1.0000e+00
       -6  2    1    2    0  503 +6.7680198563e+01 -1.7543000631e+02 -1.2665409312e+02 2.8577821490e+02 1.7398744902e+02 0.0000e+00 0.0000e+00
      -24  2    3    3    0    0 -1.3321079052e+01 -6.8161184176e+01 -5.9848117490e+00 1.0508241350e+02 7.8632674382e+01 0.0000e+00 0.0000e+00
        6  2    1    2  501    0 -6.7680198563e+01 +1.7543000631e+02 +1.7990604308e+02 3.1276393225e+02 1.7349004752e+02 0.0000e+00 0.0000e+00
       24  2    5    5    0    0 -9.1214607258e+01 +6.1890094027e+01 +7.6240879318e+01 1.5715629667e+02 8.2066689871e+01 0.0000e+00 0.0000e+00
        5  1    5    5  501    0 +2.3534408695e+01 +1.1353991228e+02 +1.0366516376e+02 1.5560763559e+02 4.7000000000e+00 0.0000e+00 -1.0000e+00
      -13  1    6    6    0    0 -9.6085554311e+01 +7.4252530586e+01 +5.7957606047e+01 1.3455465858e+02 0.0000000000e+00 0.0000e+00 1.0000e+00
       14  1    6    6    0    0 +4.8709470523e+00 -1.2362436559e+01 +1.8283273271e+01 2.2601638090e+01 0.0000000000e+00 0.0000e+00 -1.0000e+00
       -5  1    3    3    0  503 +8.1001277615e+01 -1.0726882214e+02 -1.2066928137e+02 1.8069580140e+02 4.7000000000e+00 0.0000e+00 1.0000e+00
       13  1    4    4    0    0 -3.5925640905e+01 -5.8364710087e+01 +1.7830912086e+01 7.0816894056e+01 0.0000000000e+00 0.0000e+00 -1.0000e+00
      -14  1    4    4    0    0 +2.2604561853e+01 -9.7964740892e+00 -2.3815723835e+01 3.4265519447e+01 0.0000000000e+00 0.0000e+00 1.0000e+00
<mgrwt>
<rscale>  2 0.25609505E+03</rscale>
<asrwt>0</asrwt>
<pdfrwt beam="1">  1       21 0.50138007E-01 0.25617949E+03</pdfrwt>
<pdfrwt beam="2">  1       21 0.41945400E-01 0.25617949E+03</pdfrwt>
<totfact> 0.20030388E+04</totfact>
</mgrwt>
</event>
<event>
14      3 +1.4674046e+01 2.01133500e+02 7.54677100e-03 1.15368700e-01
       21 -1    0    0  502  503 +0.0000000000e+00 +0.0000000000e+00 +3.3881781910e+02 3.3881781910e+02 0.0000000000e+00 0.0000e+00 -1.0000e+00
        2 -1    0    0  504    0 -0.0000000000e+00 -0.0000000000e+00 -6.7720342613e+02 6.7720342613e+02 0.0000000000e+00 0.0000e+00 1.0000e+00
        6  2    1    2  504    0 +4.8839763600e+01 -2.5541087166e+00 +1.2578085698e+02 2.3731737583e+02 1.9520980228e+02 0.0000e+00 0.0000e+00
       24  2    3    3    0    0 +2.6942130092e+01 -7.7716242931e+01 +9.5624515043e+01 1.4975314723e+02 8.0723382240e+01 0.0000e+00 0.0000e+00
       -6  2    1    2    0  503 -4.6636361736e+01 -1.8788685650e+01 +1.0570867170e+02 2.0842495506e+02 1.7244904661e+02 0.0000e+00 0.0000e+00
      -24  2    5    5    0    0 +3.4070918000e+00 +4.6705861170e+01 +7.9485115002e+01 1.2180135649e+02 7.9527612768e+01 0.0000e+00 0.0000e+00
        5  1    3    3  501    0 +1.8922241626e+01 +3.5422794435e+01 +5.7687272938e+00 4.0843528353e+01 4.7000000000e+00 0.0000e+00 -1.0000e+00
      -13  1    4    4    0    0 +1.1434248375e+01 +1.3884016137e+01 +2.4092560800e+00 1.8146968200e+01 0.0000000000e+00 0.0000e+00 1.0000e+00
       14  1    4    4    0    0 +1.5507881717e+01 -9.1600259068e+01 +9.3215258963e+01 1.3160617904e+02 0.0000000000e+00 0.0000e+00 -1.0000e+00
       -5  1    5    5    0  503 -5.0043453536e+01 -6.5494546820e+01 +2.6223556694e+01 8.6623598578e+01 4.7000000000e+00 0.0000e+00 1.0000e+00
       13  1    6    6    0    0 +4.5460270805e+00 +5.1032987169e+01 +9.3757862435e+01 1.0684366575e+02 0.0000000000e+00 0.0000e+00 -1.0000e+00
      -14  1    6    6    0    0 -1.1389352805e+00 -4.3271259994e+00 -1.4272747433e+01 1.4957690740e+01 0.0000000000e+00 0.0000e+00 1.0000e+00
       21  1    3    3  504  501 +2.9753918816e+00 +3.9739339780e+01 +2.4387614639e+01 4.6720700239e+01 0.0000000000e+00 0.0000e+00 -1.0000e+00
        2  1    1    2  502    0 -2.2034018635e+00 +2.1342794366e+01 -5.6987513570e+02 5.7027891434e+02 0.0000000000e+00 0.0000e+00 1.0000e+00
<mgrwt>
<rscale>  4 0.19539054E+03</rscale>
<asrwt>0</asrwt>
<pdfrwt beam="1">  1       21 0.52125819E-01 0.20113348E+03</pdfrwt>
<pdfrwt beam="2">  1        2 0.10418514E+00 0.20113348E+03</pdfrwt>
<totfact> 0.19144678E+03</totfact>
</mgrwt>
</event>
<event>
12      1 +1.4674046e+01 2.39364400e+02 7.54677100e-03 1.12041800e-01
       21 -1    0    0  501  502 +0.0000000000e+00 +0.0000000000e+00 +3.5150971427e+02 3.5150971427e+02 0.0000000000e+00 0.0000e+00 -1.0000e+00
       21 -1    0    0  502  503 -0.0000000000e+00 -0.0000000000e+00 -4.3308552909e+02 4.3308552909e+02 0.0000000000e+00 0.0000e+00 1.0000e+00
       -6  2    1    2    0  503 +2.5418771688e+01 +1.6306726940e+02 -3.5109461496e+02 4.2492677948e+02 1.7337327062e+02 0.0000e+00 0.0000e+00
      -24  2    3    3    0    0 +7.4766570803e+01 +8.1077274983e+01 -2.5617352462e+02 2.9005770278e+02 7.9655706599e+01 0.0000e+00 0.0000e+00
        6  2    1    2  501    0 -2.5418771688e+01 -1.6306726940e+02 +2.6951880013e+02 3.5966846387e+02 1.7170897466e+02 0.0000e+00 0.0000e+00
       24  2    5    5    0    0 +2.2485191934e+01 -5.7545610072e+01 +2.0213725252e+02 2.2553430240e+02 7.8671288317e+01 0.0000e+00 0.0000e+00
        5  1    5    5  501    0 -4.7903963622e+01 -1.0552165932e+02 +6.7381547610e+01 1.3413416148e+02 4.7000000000e+00 0.0000e+00 -1.0000e+00
      -13  1    6    6    0    0 +8.2953077500e+00 +1.7979458343e+01 +2.1491139776e+01 2.9222288443e+01 0.0000000000e+00 0.0000e+00 1.0000e+00
       14  1    6    6    0    0 +1.4189884184e+01 -7.5525068415e+01 +1.8064611275e+02 1.9631201395e+02 0.0000000000e+00 0.0000e+00 -1.0000e+00
       -5  1    3    3    0  503 -4.9347799115e+01 +8.1989994412e+01 -9.4921090334e+01 1.3486907671e+02 4.7000000000e+00 0.0000e+00 1.0000e+00
       13  1    4    4    0    0 -6.6629616996e+00 +4.7204306503e+01 -8.2861762244e+01 9.5596617373e+01 0.0000000000e+00 0.0000e+00 -1.0000e+00
      -14  1    4    4    0    0 +8.1429532503e+01 +3.3872968481e+01 -1.7331176238e+02 1.9446108540e+02 0.0000000000e+00 0.0000e+00 1.0000e+00
<mgrwt>
<rscale>  2 0.23906321E+03</rscale>
<asrwt>0</asrwt>
<pdfrwt beam="1">  1       21 0.54078418E-01 0.23936445E+03</pdfrwt>
<pdfrwt beam="2">  1       21 0.66628543E-01 0.23936445E+03</pdfrwt>
<totfact> 0.64635484E+03</totfact>
</mgrwt>
</event>
<event>
14      3 +1.4674046e+01 2.24087200e+02 7.54677100e-03 1.13410200e-01
        2 -1    0    0  501    0 -0.0000000000e+00 +0.0000000000e+00 +2.1783757785e+03 2.1783757785e+03 0.0000000000e+00 0.0000e+00 1.0000e+00
       21 -1    0    0  502  503 +0.0000000000e+00 -0.0000000000e+00 -4.7525806270e+01 4.7525806270e+01 0.0000000000e+00 0.0000e+00 -1.0000e+00
        6  2    1    2  501    0 -3.8902405586e+01 -1.1506147431e+02 +4.0970772823e+02 4.6058703586e+02 1.7183554637e+02 0.0000e+00 0.0000e+00
       24  2    3    3    0    0 +1.7618908336e+01 -1.9821473714e+01 +2.5945115121e+02 2.7386680240e+02 8.3575168836e+01 0.0000e+00 0.0000e+00
       -6  2    1    2    0  504 +5.3395435735e+01 +9.6343246536e+01 +7.6949665058e+02 8.0070081002e+02 1.9199895366e+02 0.0000e+00 0.0000e+00
      -24  2    5    5    0    0 -1.1147812483e+01 +7.8047298611e+01 +2.2340058630e+02 2.5047942365e+02 8.1341657029e+01 0.0000e+00 0.0000e+00
        5  1    3    3  501    0 -5.6521313922e+01 -9.5240000593e+01 +1.5025657703e+02 1.8672023345e+02 4.7000000000e+00 0.0000e+00 -1.0000e+00
      -13  1    4    4    0    0 -2.5351282355e+01 -2.5905980880e+01 +1.7719176164e+02 1.8086107308e+02 0.0000000000e+00 0.0000e+00 1.0000e+00
       14  1    4    4    0    0 +4.2970190691e+01 +6.0845071657e+00 +8.2259389561e+01 9.3005729321e+01 0.0000000000e+00 0.0000e+00 -1.0000e+00
       -5  1    5    5    0  504 +6.4543248218e+01 +1.8295947924e+01 +5.4609606428e+02 5.5022138637e+02 4.7000000000e+00 0.0000e+00 1.0000e+00
       13  1    6    6    0    0 +1.1930660220e+01 +8.5478899260e+01 +1.4857862780e+02 1.7182721412e+02 0.0000000000e+00 0.0000e+00 -1.0000e+00
      -14  1    6    6    0    0 -2.3078472703e+01 -7.4316006484e+00 +7.4821958504e+01 7.8652209535e+01 0.0000000000e+00 0.0000e+00 1.0000e+00
       21  1    1    2  504  503 -4.0882579297e+01 +2.4934273412e+01 +8.5129541104e+01 9.7673650741e+01 0.0000000000e+00 0.0000e+00 -1.0000e+00
        2  1    1    2  502    0 +2.6389549148e+01 -6.2160456405e+00 +8.6651605231e+02 8.6694008814e+02 0.0000000000e+00 0.0000e+00 1.0000e+00
<mgrwt>
<rscale>  4 0.21970671E+03</rscale>
<asrwt>0</asrwt>
<pdfrwt beam="2">  1       21 0.73116642E-02 0.22408722E+03</pdfrwt>
<pdfrwt beam="1">  1        2 0.33513466E+00 0.22408722E+03</pdfrwt>
<totfact> 0.10768166E+04</totfact>
</mgrwt>
</event>
<event>
14      3 +1.4674046e+01 2.53557200e+02 7.54677100e-03 1.11121100e-01
       21 -1    0    0  505  502 +0.0000000000e+00 +0.0000000000e+00 +2.5679999089e+02 2.5679999089e+02 0.0000000000e+00 0.0000e+00 -1.0000e+00
       21 -1    0    0  504  503 -0.0000000000e+00 -0.0000000000e+00 -4.1951736206e+02 4.1951736206e+02 0.0000000000e+00 0.0000e+00 1.0000e+00
       -6  2    1    2    0  503 +2.0650089130e+02 -5.0942882569e+01 -1.4342735428e+01 2.7464544603e+02 1.7316642739e+02 0.0000e+00 0.0000e+00
      -24  2    3    3    0    0 +1.6810837845e+02 -5.9500850779e+01 +4.8153060811e+01 2.0065194354e+02 7.8369043852e+01 0.0000e+00 0.0000e+00
        6  2    1    2  501    0 -1.6505237230e+02 -5.1424166532e+00 -4.4367214433e+01 2.4425626362e+02 1.7442460420e+02 0.0000e+00 0.0000e+00
       24  2    5    5    0    0 -1.0072124740e+02 -9.6880650383e+00 -9.6368563419e+01 1.6127803246e+02 8.0529966209e+01 0.0000e+00 0.0000e+00
        5  1    5    5  501    0 -6.4331124897e+01 +4.5456483852e+00 +5.2001348986e+01 8.2978231158e+01 4.7000000000e+00 0.0000e+00 -1.0000e+00
      -13  1    6    6    0    0 -2.8983044036e+01 +3.4473839981e+01 -3.5495968445e+01 5.7344801512e+01 0.0000000000e+00 0.0000e+00 1.0000e+00
       14  1    6    6    0    0 -7.1738203368e+01 -4.4161905019e+01 -6.0872594974e+01 1.0393323095e+02 0.0000000000e+00 0.0000e+00 -1.0000e+00
       -5  1    3    3    0  503 +3.8392512858e+01 +8.5579682099e+00 -6.2495796240e+01 7.3993502493e+01 4.7000000000e+00 0.0000e+00 1.0000e+00
       13  1    4    4    0    0 +8.0626449493e+01 +1.0792882514e+01 +3.1345582325e+01 8.7176007032e+01 0.0000000000e+00 0.0000e+00 -1.0000e+00
      -14  1    4    4    0    0 +8.7481928954e+01 -7.0293733292e+01 +1.6807478486e+01 1.1347593651e+02 0.0000000000e+00 0.0000e+00 1.0000e+00
       21  1    1    2  504  502 +5.1361394984e+00 +3.5920172026e+01 -1.0013467912e+02 1.0650630334e+02 0.0000000000e+00 0.0000e+00 -1.0000e+00
       21  1    1    2  505  501 -4.6584658502e+01 +2.0165127196e+01 -3.8727421892e+00 5.0909339955e+01 0.0000000000e+00 0.0000e+00 -1.0000e+00
<mgrwt>
<rscale>  4 0.25334094E+03</rscale>
<asrwt>0</asrwt>
<pdfrwt beam="1">  1       21 0.39507691E-01 0.25355719E+03</pdfrwt>
<pdfrwt beam="2">  1       21 0.64541132E-01 0.25355719E+03</pdfrwt>
<totfact> 0.13188655E+04</totfact>
</mgrwt>
</event>
<event>
13      2 +1.4674046e+01 2.79513400e+02 7.54677100e-03 1.09618200e-01
        2 -1    0    0  501    0 -0.0000000000e+00 +0.0000000000e+00 +2.1371555613e+03 2.1371555613e+03 0.0000000000e+00 0.0000e+00 -1.0000e+00
       21 -1    0    0  502  503 +0.0000000000e+00 -0.0000000000e+00 -1.8677439270e+02 1.8677439270e+02 0.0000000000e+00 0.0000e+00 1.0000e+00
        6  2    1    2  501    0 +1.7782457042e+02 -1.5387542343e+02 +4.6544304791e+00 2.9063950424e+02 1.7073498153e+02 0.0000e+00 0.0000e+00
       24  2    3    3    0    0 +3.5395291583e+01 -1.8290394562e+01 -2.2894241923e+01 9.2018209114e+01 7.9723517834e+01 0.0000e+00 0.0000e+00
       -6  2    1    2    0  503 -1.0047898804e+02 +1.5462012945e+02 +3.3093139805e+02 4.1664364726e+02 1.7341547543e+02 0.0000e+00 0.0000e+00
      -24  2    5    5    0    0 -4.2523588575e+01 +2.6088836851e+01 +2.2630197628e+02 2.4100615865e+02 6.6200461090e+01 0.0000e+00 0.0000e+00
        5  1    3    3  501    0 +1.4242927884e+02 -1.3558502887e+02 +2.7548672402e+01 1.9862129512e+02 4.7000000000e+00 0.0000e+00 -1.0000e+00
      -13  1    4    4    0    0 +3.6098218122e+01 -2.0147567751e+01 -4.9979049058e+01 6.4860705998e+01 0.0000000000e+00 0.0000e+00 1.0000e+00
       14  1    4    4    0    0 -7.0292653936e-01 +1.8571731882e+00 +2.7084807135e+01 2.7157503116e+01 0.0000000000e+00 0.0000e+00 -1.0000e+00
       -5  1    5    5    0  503 -5.7955399461e+01 +1.2853129260e+02 +1.0462942178e+02 1.7563748861e+02 4.7000000000e+00 0.0000e+00 1.0000e+00
       13  1    6    6    0    0 -5.6853042886e+01 +1.8441181342e+01 +2.0854552255e+02 2.1694142211e+02 0.0000000000e+00 0.0000e+00 -1.0000e+00
      -14  1    6    6    0    0 +1.4329454311e+01 +7.6476555090e+00 +1.7756453730e+01 2.4064736539e+01 0.0000000000e+00 0.0000e+00 1.0000e+00
        2  1    1    2  502    0 -7.7345582387e+01 -7.4470601452e-01 +1.6147953401e+03 1.6166468025e+03 0.0000000000e+00 0.0000e+00 -1.0000e+00
<mgrwt>
<rscale>  3 0.27909869E+03</rscale>
<asrwt>0</asrwt>
<pdfrwt beam="2">  1       21 0.28734523E-01 0.27951338E+03</pdfrwt>
<pdfrwt beam="1">  1        2 0.32879315E+00 0.27951338E+03</pdfrwt>
<totfact> 0.89800982E+02</totfact>
</mgrwt>
</event>
<event>
12      1 +1.4674046e+01 1.78887800e+02 7.54677100e-03 1.16920800e-01
       21 -1    0    0  501  502 +0.0000000000e+00 +0.0000000000e+00 +7.0928511069e+02 7.0928511069e+02 0.0000000000e+00 0.0000e+00 -1.0000e+00
       21 -1    0    0  502  503 -0.0000000000e+00 -0.0000000000e+00 -4.8990493947e+01 4.8990493947e+01 0.0000000000e+00 0.0000e+00 -1.0000e+00
        6  2    1    2  501    0 -3.0013978649e+01 -3.4972715505e+01 +4.4237473819e+02 4.7717529407e+02 1.7284942159e+02 0.0000e+00 0.0000e+00
       24  2    3    3    0    0 +3.5752199961e+01 +1.9555677866e+01 +1.8713243690e+02 2.0797414568e+02 8.1080527812e+01 0.0000e+00 0.0000e+00
       -6  2    1    2    0  503 +3.0013978649e+01 +3.4972715505e+01 +2.1791987855e+02 2.8110031056e+02 1.7147705789e+02 0.0000e+00 0.0000e+00
      -24  2    5    5    0    0 +2.7292316239e+01 +2.4077787822e+01 +2.4001094157e+02 2.5587706809e+02 8.0890119944e+01 0.0000e+00 0.0000e+00
        5  1    3    3  501    0 -6.5766178610e+01 -5.4528393372e+01 +2.5524230128e+02 2.6920114840e+02 4.7000000000e+00 0.0000e+00 -1.0000e+00
      -13  1    4    4    0    0 +1.5675707658e+01 -1.5096087635e+01 +6.1518087591e+00 2.2615579221e+01 0.0000000000e+00 0.0000e+00 1.0000e+00
       14  1    4    4    0    0 +2.0076492303e+01 +3.4651765502e+01 +1.8098062815e+02 1.8535856646e+02 0.0000000000e+00 0.0000e+00 -1.0000e+00
       -5  1    5    5    0  503 +2.7216624107e+00 +1.0894927684e+01 -2.2091063021e+01 2.5223242474e+01 4.7000000000e+00 0.0000e+00 1.0000e+00
       13  1    6    6    0    0 +2.2823596147e+01 +4.7585049567e+01 +9.2996195538e+01 1.0692776004e+02 0.0000000000e+00 0.0000e+00 -1.0000e+00
      -14  1    6    6    0    0 +4.4687200914e+00 -2.3507261745e+01 +1.4701474604e+02 1.4894930804e+02 0.0000000000e+00 0.0000e+00 1.0000e+00
<mgrwt>
<rscale>  2 0.17855547E+03</rscale>
<asrwt>0</asrwt>
<pdfrwt beam="1">  1       21 0.10912078E+00 0.17888782E+03</pdfrwt>
<pdfrwt beam="2">  1       21 0.75369996E-02 0.17888782E+03</pdfrwt>
<totfact> 0.89165786E+04</totfact>
</mgrwt>
</event>
<event>
13      2 +1.4674046e+01 2.10795900e+02 7.54677100e-03 1.14136300e-01
       21 -1    0    0  504  502 +0.0000000000e+00 +0.0000000000e+00 +1.0716686457e+03 1.0716686457e+03 0.0000000000e+00 0.0000e+00 -1.0000e+00
       21 -1    0    0  502  503 -0.0000000000e+00 -0.0000000000e+00 -2.4467542305e+02 2.4467542305e+02 0.0000000000e+00 0.0000e+00 1.0000e+00
        6  2    1    2  501    0 +7.0333091902e+00 -9.5356392504e+01 +2.8198026976e+02 3.4270275523e+02 1.6967615295e+02 0.0000e+00 0.0000e+00
       24  2    3    3    0    0 +2.8952381888e+01 -8.9630607700e+01 +1.0030760736e+02 1.5956270876e+02 8.0788338749e+01 0.0000e+00 0.0000e+00
       -6  2    1    2    0  503 -6.5351329512e+00 +1.2564774206e+02 -1.6080659420e+02 2.6717188950e+02 1.7231365225e+02 0.0000e+00 0.0000e+00
      -24  2    5    5    0    0 -1.9774440003e+01 +1.5462443273e+02 -1.0950660349e+02 2.0660203809e+02 7.9956002012e+01 0.0000e+00 0.0000e+00
        5  1    3    3  501    0 -2.1919072698e+01 -5.7257848043e+00 +1.8167266239e+02 1.8314004647e+02 4.7000000000e+00 0.0000e+00 -1.0000e+00
      -13  1    4    4    0    0 +4.7073035231e+01 -4.7530601499e+01 +9.0752342673e+01 1.1274314358e+02 0.0000000000e+00 0.0000e+00 1.0000e+00
       14  1    4    4    0    0 -1.8120653342e+01 -4.2100006201e+01 +9.5552646876e+00 4.6819565172e+01 0.0000000000e+00 0.0000e+00 -1.0000e+00
       -5  1    5    5    0  503 +1.3239307051e+01 -2.8976690673e+01 -5.1299990705e+01 6.0569851410e+01 4.7000000000e+00 0.0000e+00 1.0000e+00
       13  1    6    6    0    0 -7.7192944055e+00 -6.9334502147e+00 +1.1067260252e+00 1.0434801411e+01 0.0000000000e+00 0.0000e+00 -1.0000e+00
      -14  1    6    6    0    0 -1.2055145597e+01 +1.6155788295e+02 -1.1061332952e+02 1.9616723667e+02 0.0000000000e+00 0.0000e+00 1.0000e+00
       21  1    1    2  504  501 -4.9817623903e-01 -3.0291349553e+01 +7.0581954708e+02 7.0646942402e+02 0.0000000000e+00 0.0000e+00 -1.0000e+00
<mgrwt>
<rscale>  3 0.21025619E+03</rscale>
<asrwt>0</asrwt>
<pdfrwt beam="1">  1       21 0.16487210E+00 0.21079587E+03</pdfrwt>
<pdfrwt beam="2">  1       21 0.37642373E-01 0.21079587E+03</pdfrwt>
<totfact> 0.15513726E+03</totfact>
</mgrwt>
</event>
<event>
14      3 +1.4674046e+01 1.90828900e+02 7.54677100e-03 1.15919100e-01
       21 -1    0    0  505  502 +0.0000000000e+00 +0.0000000000e+00 +4.0128675401e+02 4.0128675401e+02 0.0000000000e+00 0.0000e+00 -1.0000e+00
       21 -1    0    0  504  503 -0.0000000000e+00 -0.0000000000e+00 -4.6211989921e+02 4.6211989921e+02 0.0000000000e+00 0.0000e+00 -1.0000e+00
        6  2    1    2  501    0 +5.0078364389e+00 +9.0412163653e+01 +3.9178154298e+01 2.0604545460e+02 1.8088771054e+02 0.0000e+00 0.0000e+00
       24  2    3    3    0    0 -3.9688616860e+01 +7.1872374687e+01 +8.2391072860e+01 1.4099975495e+02 7.9698290173e+01 0.0000e+00 0.0000e+00
       -6  2    1    2    0  502 +7.4136228094e+00 +5.6681461419e+01 -2.0675371528e+02 2.8488407129e+02 1.8746755832e+02 0.0000e+00 0.0000e+00
      -24  2    5    5    0    0 -4.8596002152e+01 +3.1671965412e+01 -3.7078516479e+01 1.0440050953e+02 7.8485445699e+01 0.0000e+00 0.0000e+00
        5  1    3    3  501    0 +4.4696453299e+01 +1.8539788966e+01 -4.3212918562e+01 6.5045699651e+01 4.7000000000e+00 0.0000e+00 -1.0000e+00
      -13  1    4    4    0    0 +1.5001527658e+01 +4.8710330426e+01 +5.6838103171e+01 7.6343382780e+01 0.0000000000e+00 0.0000e+00 1.0000e+00
       14  1    4    4    0    0 -5.4690144518e+01 +2.3162044261e+01 +2.5552969689e+01 6.4656372166e+01 0.0000000000e+00 0.0000e+00 -1.0000e+00
       -5  1    5    5    0  502 +5.6009624962e+01 +2.5009496007e+01 -1.6967519880e+02 1.8048356177e+02 4.7000000000e+00 0.0000e+00 1.0000e+00
       13  1    6    6    0    0 +1.6309562186e+01 +1.2568139506e+01 -2.9981059628e+01 3.6370645935e+01 0.0000000000e+00 0.0000e+00 -1.0000e+00
      -14  1    6    6    0    0 -6.4905564338e+01 +1.9103825907e+01 -7.0974568508e+00 6.8029863590e+01 0.0000000000e+00 0.0000e+00 1.0000e+00
       21  1    1    2  504  501 +2.6816982375e+01 +3.2808514685e+01 -9.2157020580e+01 1.0143207393e+02 0.0000000000e+00 0.0000e+00 -1.0000e+00
       21  1    1    2  505  503 -3.9238441623e+01 -1.7990213976e+02 +1.9889943636e+02 2.7104505340e+02 0.0000000000e+00 0.0000e+00 -1.0000e+00
<mgrwt>
<rscale>  4 0.18919301E+03</rscale>
<asrwt>0</asrwt>
<pdfrwt beam="1">  1       21 0.61736424E-01 0.19082889E+03</pdfrwt>
<pdfrwt beam="2">  1       21 0.71095369E-01 0.19082889E+03</pdfrwt>
<totfact> 0.43696666E+03</totfact>
</mgrwt>
</event>
<event>
13      2 +1.4674046e+01 2.20916400e+02 7.54677100e-03 1.13322500e-01
       21 -1    0    0  504  502 +0.0000000000e+00 +0.0000000000e+00 +1.2387360262e+03 1.2387360262e+03 0.0000000000e+00 0.0000e+00 -1.0000e+00
       21 -1    0    0  501  503 -0.0000000000e+00 -0.0000000000e+00 -5.0485225037e+01 5.0485225037e+01 0.0000000000e+00 0.0000e+00 -1.0000e+00
        6  2    1    2  501    0 +4.3781136670e+01 -1.3732098690e+02 +4.1639017745e+02 4.7318052937e+02 1.7246794522e+02 0.0000e+00 0.0000e+00
       24  2    3    3    0    0 -2.7449961717e+01 -7.6199425623e+01 +1.2750708327e+02 1.6939566021e+02 7.6661467174e+01 0.0000e+00 0.0000e+00
       -6  2    1    2    0  502 -5.4714379840e+01 +1.1876787831e+02 +5.2045428326e+02 5.6371374815e+02 1.7262982538e+02 0.0000e+00 0.0000e+00
      -24  2    5    5    0    0 +7.8446854083e+00 +1.8215228324e+01 +3.1350894974e+02 3.2523328117e+02 8.4234743329e+01 0.0000e+00 0.0000e+00
        5  1    3    3  501    0 +7.1231098387e+01 -6.1121561278e+01 +2.8888309418e+02 3.0378486916e+02 4.7000000000e+00 0.0000e+00 -1.0000e+00
      -13  1    4    4    0    0 -4.1901075503e+01 -7.3589097478e+01 +1.2934087725e+02 1.5459662973e+02 0.0000000000e+00 0.0000e+00 1.0000e+00
       14  1    4    4    0    0 +1.4451113787e+01 -2.6103281443e+00 -1.8337939796e+00 1.4799030477e+01 0.0000000000e+00 0.0000e+00 -1.0000e+00
       -5  1    5    5    0  502 -6.2559065248e+01 +1.0055264999e+02 +2.0694533352e+02 2.3848046698e+02 4.7000000000e+00 0.0000e+00 1.0000e+00
       13  1    6    6    0    0 -6.4044930307e+00 +1.2287901404e+01 +2.7944286843e+00 1.4135730740e+01 0.0000000000e+00 0.0000e+00 -1.0000e+00
      -14  1    6    6    0    0 +1.4249178439e+01 +5.9273269196e+00 +3.1071452106e+02 3.1109755043e+02 0.0000000000e+00 0.0000e+00 1.0000e+00
       21  1    1    2  504  503 +1.0933243170e+01 +1.8553108591e+01 +2.5140634040e+02 2.5232697367e+02 0.0000000000e+00 0.0000e+00 -1.0000e+00
<mgrwt>
<rscale>  3 0.22088473E+03</rscale>
<asrwt>0</asrwt>
<pdfrwt beam="1">  1       21 0.19057475E+00 0.22091636E+03</pdfrwt>
<pdfrwt beam="2">  1       21 0.77669587E-02 0.22091636E+03</pdfrwt>
<totfact> 0.19140062E+04</totfact>
</mgrwt>
</event>
<event>
14      3 +1.4674046e+01 1.74656100e+02 7.54677100e-03 1.17307800e-01
       21 -1    0    0  502  503 +0.0000000000e+00 +0.0000000000e+00 +6.2307130326e+02 6.2307130326e+02 0.0000000000e+00 0.0000e+00 1.0000e+00
        2 -1    0    0  504    0 -0.0000000000e+00 -0.0000000000e+00 -5.8877301216e+02 5.8877301216e+02 0.0000000000e+00 0.0000e+00 1.0000e+00
        6  2    1    2  501    0 +7.6567724423e+00 -1.7200898827e+01 +4.5412869452e+02 4.8624741487e+02 1.7276915292e+02 0.0000e+00 0.0000e+00
       24  2    3    3    0    0 +2.8633749038e+01 +5.1108759198e+01 +2.9965631484e+02 3.1598277083e+02 8.1358512694e+01 0.0000e+00 0.0000e+00
       -6  2    1    2    0  503 -4.7353179003e+01 +3.5410345010e+01 +5.1099373325e+01 1.8962525256e+02 1.7277260882e+02 0.0000e+00 0.0000e+00
      -24  2    5    5    0    0 -5.7133668926e+01 -3.4776491928e+01 +5.5905031900e+01 1.1844214771e+02 8.0184220679e+01 0.0000e+00 0.0000e+00
        5  1    3    3  501    0 -2.0976976595e+01 -6.8309658025e+01 +1.5447237967e+02 1.7026464404e+02 4.7000000000e+00 0.0000e+00 -1.0000e+00
      -13  1    4    4    0    0 +2.4407680388e+01 +7.3461547359e+01 +2.2562133905e+02 2.3853159631e+02 0.0000000000e+00 0.0000e+00 1.0000e+00
       14  1    4    4    0    0 +4.2260686499e+00 -2.2352788161e+01 +7.4034975789e+01 7.7451174522e+01 0.0000000000e+00 0.0000e+00 -1.0000e+00
       -5  1    5    5    0  503 +9.7804899227e+00 +7.0186836938e+01 -4.8056585748e+00 7.1183104855e+01 4.7000000000e+00 0.0000e+00 1.0000e+00
       13  1    6    6    0    0 -4.5506651794e+00 +2.3731416753e+01 +2.2365669183e+01 3.2925853864e+01 0.0000000000e+00 0.0000e+00 -1.0000e+00
      -14  1    6    6    0    0 -5.2583003747e+01 -5.8507908680e+01 +3.3539362717e+01 8.5516293843e+01 0.0000000000e+00 0.0000e+00 1.0000e+00
       21  1    1    2  504  501 +1.1527343872e+02 -6.5975419960e+01 -1.3917554650e+02 1.9238127366e+02 0.0000000000e+00 0.0000e+00 1.0000e+00
        2  1    1    2  502    0 -7.5577032154e+01 +4.7765973776e+01 -3.3175423025e+02 3.4359037433e+02 0.0000000000e+00 0.0000e+00 1.0000e+00
<mgrwt>
<rscale>  4 0.17465529E+03</rscale>
<asrwt>0</asrwt>
<pdfrwt beam="1">  1       21 0.95857123E-01 0.17465615E+03</pdfrwt>
<pdfrwt beam="2">  1        2 0.90580464E-01 0.17465615E+03</pdfrwt>
<totfact> 0.59497642E+02</totfact>
</mgrwt>
</event>
<event>
12      1 +1.4674046e+01 1.85075300e+02 7.54677100e-03 1.16329300e-01
       21 -1    0    0  501  502 +0.0000000000e+00 +0.0000000000e+00 +1.3451540421e+02 1.3451540421e+02 0.0000000000e+00 0.0000e+00 -1.0000e+00
       21 -1    0    0  502  503 -0.0000000000e+00 -0.0000000000e+00 -3.6040485179e+02 3.6040485179e+02 0.0000000000e+00 0.0000e+00 1.0000e+00
       -6  2    1    2    0  503 -1.9258265568e+01 -6.3068350258e+01 +2.1980427470e+01 1.8637599988e+02 1.7292881930e+02 0.0000e+00 0.0000e+00
      -24  2    3    3    0    0 -1.3230603418e+01 -3.7977653472e+01 +8.2435855136e+01 1.2047588979e+02 7.8111579030e+01 0.0000e+00 0.0000e+00
        6  2    1    2  501    0 +1.9258265568e+01 +6.3068350258e+01 -2.4786987505e+02 3.0854425612e+02 1.7149806247e+02 0.0000e+00 0.0000e+00
       24  2    5    5    0    0 -4.4966428035e+01 +4.5142765822e+01 -2.0786498305e+02 2.3064291320e+02 7.6996449750e+01 0.0000e+00 0.0000e+00
        5  1    5    5  501    0 +6.4224693603e+01 +1.7925584436e+01 -4.0004892005e+01 7.7901342929e+01 4.7000000000e+00 0.0000e+00 -1.0000e+00
      -13  1    6    6    0    0 -1.2063631114e+01 +5.6994623125e+01 -8.6115944640e+01 1.0397054478e+02 0.0000000000e+00 0.0000e+00 1.0000e+00
       14  1    6    6    0    0 -3.2902796922e+01 -1.1851857304e+01 -1.2174903841e+02 1.2667236841e+02 0.0000000000e+00 0.0000e+00 -1.0000e+00
       -5  1    3    3    0  503 -6.0276621502e+00 -2.5090696786e+01 -6.0455427666e+01 6.5900110094e+01 4.7000000000e+00 0.0000e+00 1.0000e+00
       13  1    4    4    0    0 -2.5665576972e+01 +9.5000686824e+00 +6.1120621704e+01 6.6967929218e+01 0.0000000000e+00 0.0000e+00 -1.0000e+00
      -14  1    4    4    0    0 +1.2434973554e+01 -4.7477722154e+01 +2.1315233431e+01 5.3507960571e+01 0.0000000000e+00 0.0000e+00 1.0000e+00
<mgrwt>
<rscale>  2 0.18474037E+03</rscale>
<asrwt>0</asrwt>
<pdfrwt beam="1">  1       21 0.20694678E-01 0.18507532E+03</pdfrwt>
<pdfrwt beam="2">  1       21 0.55446900E-01 0.18507532E+03</pdfrwt>
<totfact> 0.66615141E+04</totfact>
</mgrwt>
</event>
<event>
12      2 +1.4674046e+01 3.01219400e+02 7.54677100e-03 1.08955600e-01
        2 -1    0    0  503    0 -0.0000000000e+00 +0.0000000000e+00 +1.8920030309e+03 1.8920030309e+03 0.0000000000e+00 0.0000e+00 1.0000e+00
       21 -1    0    0  501  503 +0.0000000000e+00 -0.0000000000e+00 -3.5717241307e+02 3.5717241307e+02 0.0000000000e+00 0.0000e+00 -1.0000e+00
        6  2    1    2  501    0 -1.4911183400e+02 +1.3661698848e+02 -2.7779556376e+02 3.8422109673e+02 1.7192130569e+02 0.0000e+00 0.0000e+00
       24  2    3    3    0    0 -7.3661784533e+01 +1.1466520344e+02 -2.5785507589e+02 3.0301577741e+02 8.2189742757e+01 0.0000e+00 0.0000e+00
      -24  2    1    2    0    0 +1.3319721749e+02 -5.7743675323e+01 +7.2346680455e+02 7.4212709793e+02 7.9199630136e+01 0.0000e+00 0.0000e+00
        5  1    3    3  501    0 -7.5450049463e+01 +2.1951785039e+01 -1.9940487869e+01 8.1205319326e+01 4.7000000000e+00 0.0000e+00 -1.0000e+00
      -13  1    4    4    0    0 +5.9106873200e+00 +2.5708276724e+01 -1.0938310336e+02 1.1251895403e+02 0.0000000000e+00 0.0000e+00 1.0000e+00
       14  1    4    4    0    0 -7.9572471853e+01 +8.8956926716e+01 -1.4847197254e+02 1.9049682338e+02 0.0000000000e+00 0.0000e+00 -1.0000e+00
       -5  1    1    2    0  502 -6.9364970402e-01 -6.1234278760e+01 +3.9795971249e+01 7.3184201662e+01 4.7000000000e+00 0.0000e+00 1.0000e+00
       13  1    5    5    0    0 +7.2895627318e+01 -1.6793288207e+01 +1.9856361777e+02 2.1218693955e+02 0.0000000000e+00 0.0000e+00 -1.0000e+00
      -14  1    5    5    0    0 +6.0301590169e+01 -4.0950387116e+01 +5.2490318677e+02 5.2994015838e+02 0.0000000000e+00 0.0000e+00 1.0000e+00
        2  1    1    2  502    0 +1.6608266213e+01 -1.7639034395e+01 +1.0493634058e+03 1.0496430477e+03 0.0000000000e+00 0.0000e+00 1.0000e+00
<mgrwt>
<rscale>  3 0.29152494E+03</rscale>
<asrwt>0</asrwt>
<pdfrwt beam="2">  1       21 0.54949603E-01 0.30121943E+03</pdfrwt>
<pdfrwt beam="1">  1        2 0.29107738E+00 0.30121943E+03</pdfrwt>
<totfact> 0.31856773E+02</totfact>
</mgrwt>
</event>
<event>
13      2 +1.4674046e+01 1.98356900e+02 7.54677100e-03 1.15257500e-01
       21 -1    0    0  501  503 +0.0000000000e+00 +0.0000000000e+00 +4.2963234058e+02 4.2963234058e+02 0.0000000000e+00 0.0000e+00 -1.0000e+00
       -4 -1    0    0    0  501 -0.0000000000e+00 -0.0000000000e+00 -3.8747750559e+02 3.8747750559e+02 0.0000000000e+00 0.0000e+00 1.0000e+00
        6  2    1    2  502    0 -3.8796809688e+01 +6.1668213437e+01 -3.1760791677e+01 1.8326943003e+02 1.6513865418e+02 0.0000e+00 0.0000e+00
       24  2    3    3    0    0 +8.0446870299e+00 -2.0412331457e+01 -7.5405115987e-01 8.3696092119e+01 8.0765629930e+01 0.0000e+00 0.0000e+00
       -6  2    1    2    0  503 +5.0288755276e+01 -9.1016600927e+01 +3.2407375728e+02 3.8170457383e+02 1.7280509534e+02 0.0000e+00 0.0000e+00
      -24  2    5    5    0    0 +6.4825583346e+01 -1.2117217867e+02 +3.0071502282e+02 3.4061444466e+02 8.1875648548e+01 0.0000e+00 0.0000e+00
        5  1    3    3  502    0 -4.6841496718e+01 +8.2080544894e+01 -3.1006740517e+01 9.9573337909e+01 4.7000000000e+00 0.0000e+00 -1.0000e+00
      -13  1    4    4    0    0 -2.9149388130e+00 +2.4955969329e+01 -2.1071943980e+01 3.2792134675e+01 0.0000000000e+00 0.0000e+00 1.0000e+00
       14  1    4    4    0    0 +1.0959625843e+01 -4.5368300786e+01 +2.0317892820e+01 5.0903957444e+01 0.0000000000e+00 0.0000e+00 -1.0000e+00
       -5  1    5    5    0  503 -1.4536828069e+01 +3.0155577744e+01 +2.3358734464e+01 4.1090129169e+01 4.7000000000e+00 0.0000e+00 1.0000e+00
       13  1    6    6    0    0 +5.1421691584e+01 -6.3665265550e+01 +2.4906015658e+02 2.6216105355e+02 0.0000000000e+00 0.0000e+00 -1.0000e+00
      -14  1    6    6    0    0 +1.3403891762e+01 -5.7506913120e+01 +5.1654866235e+01 7.8453391110e+01 0.0000000000e+00 0.0000e+00 1.0000e+00
       -4  1    1    2    0  502 -1.1491945588e+01 +2.9348387490e+01 -2.5015813062e+02 2.5213584231e+02 0.0000000000e+00 0.0000e+00 1.0000e+00
<mgrwt>
<rscale>  3 0.19667518E+03</rscale>
<asrwt>0</asrwt>
<pdfrwt beam="1">  1       21 0.66097283E-01 0.19835693E+03</pdfrwt>
<pdfrwt beam="2">  1       -4 0.59611924E-01 0.19835693E+03</pdfrwt>
<totfact> 0.23744804E+02</totfact>
</mgrwt>
</event>
<event>
13      2 +1.4674046e+01 2.71681900e+02 7.54677100e-03 1.11289600e-01
       21 -1    0    0  501  502 +0.0000000000e+00 +0.0000000000e+00 +1.0790212020e+03 1.0790212020e+03 0.0000000000e+00 0.0000e+00 1.0000e+00
       21 -1    0    0  504  503 -0.0000000000e+00 -0.0000000000e+00 -1.2208436237e+02 1.2208436237e+02 0.0000000000e+00 0.0000e+00 1.0000e+00
        6  2    1    2  501    0 +8.9245184860e+01 +2.8179925363e+01 +1.3468936237e+02 2.3849788732e+02 1.7315082069e+02 0.0000e+00 0.0000e+00
       24  2    3    3    0    0 +1.8643730114e+01 +7.2183546411e+01 +1.0271798659e+02 1.4925023779e+02 7.8527674521e+01 0.0000e+00 0.0000e+00
       -6  2    1    2    0  503 -1.8217129248e+02 +1.5348616383e+02 +4.2442686679e+02 5.1550694169e+02 1.6989661381e+02 0.0000e+00 0.0000e+00
      -24  2    5    5    0    0 -1.1635990408e+02 +5.7021435852e+01 +1.5184804745e+02 2.1892999495e+02 8.9896839478e+01 0.0000e+00 0.0000e+00
        5  1    3    3  501    0 +7.0601454746e+01 -4.4003621047e+01 +3.1971375778e+01 8.9247649530e+01 4.7000000000e+00 0.0000e+00 -1.0000e+00
      -13  1    4    4    0    0 +3.6731847917e+01 +1.5959477963e+01 +7.2691254755e+01 8.2993687146e+01 0.0000000000e+00 0.0000e+00 1.0000e+00
       14  1    4    4    0    0 -1.8088117802e+01 +5.6224068447e+01 +3.0026731839e+01 6.6256550645e+01 0.0000000000e+00 0.0000e+00 -1.0000e+00
       -5  1    5    5    0  503 -6.5811388398e+01 +9.6464727973e+01 +2.7257881934e+02 2.9657694674e+02 4.7000000000e+00 0.0000e+00 1.0000e+00
       13  1    6    6    0    0 -3.9014169573e+01 +6.8886205491e+01 +6.9697935373e+01 1.0547614389e+02 0.0000000000e+00 0.0000e+00 -1.0000e+00
      -14  1    6    6    0    0 -7.7345734508e+01 -1.1864769640e+01 +8.2150112082e+01 1.1345385106e+02 0.0000000000e+00 0.0000e+00 1.0000e+00
       21  1    1    2  504  502 +9.2926107620e+01 -1.8166608919e+02 +3.9782061044e+02 4.4710073532e+02 0.0000000000e+00 0.0000e+00 1.0000e+00
<mgrwt>
<rscale>  3 0.25064874E+03</rscale>
<asrwt>0</asrwt>
<pdfrwt beam="1">  1       21 0.16600326E+00 0.27168191E+03</pdfrwt>
<pdfrwt beam="2">  1       21 0.18782210E-01 0.27168191E+03</pdfrwt>
<totfact> 0.55779728E+03</totfact>
</mgrwt>
</event>
<event>
12      1 +1.4674046e+01 1.93177200e+02 7.54677100e-03 1.15590200e-01
       21 -1    0    0  503  502 +0.0000000000e+00 +0.0000000000e+00 +2.0240809978e+03 2.0240809978e+03 0.0000000000e+00 0.0000e+00 1.0000e+00
       21 -1    0    0  501  503 -0.0000000000e+00 -0.0000000000e+00 -2.4765511164e+01 2.4765511164e+01 0.0000000000e+00 0.0000e+00 -1.0000e+00
        6  2    1    2  501    0 +3.2837975476e+01 +7.8537636563e+01 +4.7458641199e+02 5.1192875685e+02 1.7202411647e+02 0.0000e+00 0.0000e+00
       24  2    3    3    0    0 -4.3762642659e+01 +2.2859536414e+01 +2.8258969746e+02 2.9779670897e+02 7.9926312733e+01 0.0000e+00 0.0000e+00
       -6  2    1    2    0  502 -3.2837975476e+01 -7.8537636563e+01 +1.5247290746e+03 1.5369177521e+03 1.7340972499e+02 0.0000e+00 0.0000e+00
      -24  2    5    5    0    0 -1.9020142934e+01 -1.8558329623e+00 +3.1996836513e+02 3.2963092262e+02 7.6886803213e+01 0.0000e+00 0.0000e+00
        5  1    3    3  501    0 +7.6600618135e+01 +5.5678100149e+01 +1.9199671454e+02 2.1413204788e+02 4.7000000000e+00 0.0000e+00 -1.0000e+00
      -13  1    4    4    0    0 -5.5008705617e+01 +4.1386484039e+01 +2.4413911744e+02 2.5365864349e+02 0.0000000000e+00 0.0000e+00 1.0000e+00
       14  1    4    4    0    0 +1.1246062958e+01 -1.8526947625e+01 +3.8450580019e+01 4.4138065478e+01 0.0000000000e+00 0.0000e+00 -1.0000e+00
       -5  1    5    5    0  502 -1.3817832542e+01 -7.6681803601e+01 +1.2047607095e+03 1.2072868295e+03 4.7000000000e+00 0.0000e+00 1.0000e+00
       13  1    6    6    0    0 -1.3647887099e+01 -3.2263609072e+01 +7.5631972816e+01 8.3351068407e+01 0.0000000000e+00 0.0000e+00 -1.0000e+00
      -14  1    6    6    0    0 -5.3722558352e+00 +3.0407776109e+01 +2.4433639231e+02 2.4627985421e+02 0.0000000000e+00 0.0000e+00 1.0000e+00
<mgrwt>
<rscale>  2 0.19286572E+03</rscale>
<asrwt>0</asrwt>
<pdfrwt beam="1">  1       21 0.31139695E+00 0.19317719E+03</pdfrwt>
<pdfrwt beam="2">  1       21 0.38100802E-02 0.19317719E+03</pdfrwt>
<totfact> 0.12467451E+04</totfact>
</mgrwt>
</event>
<event>
14      3 +1.4674046e+01 1.96842600e+02 7.54677100e-03 1.15248300e-01
       21 -1    0    0  501  502 +0.0000000000e+00 +0.0000000000e+00 +1.0034827034e+03 1.0034827034e+03 0.0000000000e+00 0.0000e+00 1.0000e+00
       21 -1    0    0  504  503 -0.0000000000e+00 -0.0000000000e+00 -6.6401978212e+01 6.6401978212e+01 0.0000000000e+00 0.0000e+00 -1.0000e+00
       -6  2    1    2    0  503 +1.1750937992e+02 -1.8084645223e+01 +3.2940771524e+02 3.9018310571e+02 1.7204041490e+02 0.0000e+00 0.0000e+00
      -24  2    3    3    0    0 +3.9239834860e+01 -1.6313517138e+01 +2.8656077525e+02 3.0081191995e+02 8.1023686576e+01 0.0000e+00 0.0000e+00
        6  2    1    2  501    0 -8.4090397684e+01 -9.3987550025e+00 +5.9818007146e+02 6.2822994257e+02 1.7231927135e+02 0.0000e+00 0.0000e+00
       24  2    5    5    0    0 -9.3342878309e+01 +5.3263137444e+00 +2.3994639174e+02 2.6954359584e+02 7.9612917299e+01 0.0000e+00 0.0000e+00
        5  1    5    5  501    0 +9.2524806253e+00 -1.4725068747e+01 +3.5823367972e+02 3.5868634674e+02 4.7000000000e+00 0.0000e+00 -1.0000e+00
      -13  1    6    6    0    0 -2.4933202074e+01 +2.4682197389e+01 +2.4825170882e+01 4.2978652177e+01 0.0000000000e+00 0.0000e+00 1.0000e+00
       14  1    6    6    0    0 -6.8409676235e+01 -1.9355883645e+01 +2.1512122086e+02 2.2656494366e+02 0.0000000000e+00 0.0000e+00 -1.0000e+00
       -5  1    3    3    0  503 +7.8269545056e+01 -1.7711280847e+00 +4.2846939983e+01 8.9371185759e+01 4.7000000000e+00 0.0000e+00 1.0000e+00
       13  1    4    4    0    0 +1.1792159646e+01 +2.8870318277e+01 +5.4373610866e+01 6.2682053773e+01 0.0000000000e+00 0.0000e+00 -1.0000e+00
      -14  1    4    4    0    0 +2.7447675214e+01 -4.5183835415e+01 +2.3218716439e+02 2.3812986617e+02 0.0000000000e+00 0.0000e+00 1.0000e+00
       21  1    1    2  504  505 -2.6914508763e+01 +6.6273845552e+00 +1.7055868981e-01 2.7718984438e+01 0.0000000000e+00 0.0000e+00 -1.0000e+00
       21  1    1    2  505  502 -6.5044734692e+00 +2.0856015670e+01 +9.3223798151e+00 2.3752648908e+01 0.0000000000e+00 0.0000e+00 -1.0000e+00
<mgrwt>
<rscale>  4 0.19678156E+03</rscale>
<asrwt>0</asrwt>
<pdfrwt beam="1">  1       21 0.15438194E+00 0.19684261E+03</pdfrwt>
<pdfrwt beam="2">  1       21 0.10215690E-01 0.19684261E+03</pdfrwt>
<totfact> 0.21584139E+04</totfact>
</mgrwt>
</event>
<event>
12      2 +1.4674046e+01 2.62159800e+02 7.54677100e-03 1.10731200e-01
       21 -1    0    0  501  502 +0.0000000000e+00 +0.0000000000e+00 +1.5835511999e+02 1.5835511999e+02 0.0000000000e+00 0.0000e+00 -1.0000e+00
       21 -1    0    0  504  503 -0.0000000000e+00 -0.0000000000e+00 -9.4288867569e+02 9.4288867569e+02 0.0000000000e+00 0.0000e+00 1.0000e+00
       -6  2    1    2    0  503 +3.4732878117e+01 +1.8760284343e+02 -5.0716083216e+02 5.7026044245e+02 1.7771793060e+02 0.0000e+00 0.0000e+00
      -24  2    3    3    0    0 -3.1567703184e+01 +7.4319994940e+01 -1.4083346347e+02 1.8109903391e+02 8.0267142207e+01 0.0000e+00 0.0000e+00
        6  2    1    2  501    0 -1.3932572331e+01 -1.9538890913e+02 -3.6240354806e+02 4.4309981290e+02 1.6318753067e+02 0.0000e+00 0.0000e+00
        5  1    5    5  501    0 -1.6790307897e+01 -9.6809957052e+01 -1.0646174757e+02 1.4494921841e+02 4.7000000000e+00 0.0000e+00 -1.0000e+00
      -13  1    5    5    0    0 -1.4270466213e+01 -5.2986050112e+01 -2.4105535131e+02 2.4722226863e+02 0.0000000000e+00 0.0000e+00 1.0000e+00
       14  1    5    5    0    0 +1.7128201779e+01 -4.5592901962e+01 -1.4886449188e+01 5.0928325861e+01 0.0000000000e+00 0.0000e+00 -1.0000e+00
       -5  1    3    3    0  503 +6.6300581302e+01 +1.1328284849e+02 -3.6632736869e+02 3.8916140854e+02 4.7000000000e+00 0.0000e+00 1.0000e+00
       13  1    4    4    0    0 +1.9436319205e+01 -3.3980121654e+00 -1.5702086559e+01 2.5216512709e+01 0.0000000000e+00 0.0000e+00 -1.0000e+00
      -14  1    4    4    0    0 -5.1004022389e+01 +7.7718007105e+01 -1.2513137691e+02 1.5588252120e+02 0.0000000000e+00 0.0000e+00 1.0000e+00
       21  1    1    2  504  502 -2.0800305786e+01 +7.7860657013e+00 +8.5030824525e+01 8.7883540320e+01 0.0000000000e+00 0.0000e+00 -1.0000e+00
<mgrwt>
<rscale>  3 0.25971988E+03</rscale>
<asrwt>0</asrwt>
<pdfrwt beam="1">  1       21 0.24362326E-01 0.26215976E+03</pdfrwt>
<pdfrwt beam="2">  1       21 0.14505980E+00 0.26215976E+03</pdfrwt>
<totfact> 0.49342835E+03</totfact>
</mgrwt>
</event>
<event>
13      2 +1.4674046e+01 2.59060300e+02 7.54677100e-03 1.10783000e-01
       21 -1    0    0  501  502 +0.0000000000e+00 +0.0000000000e+00 +7.5510241317e+02 7.5510241317e+02 0.0000000000e+00 0.0000e+00 -1.0000e+00
       21 -1    0    0  504  503 -0.0000000000e+00 -0.0000000000e+00 -1.8448145386e+02 1.8448145386e+02 0.0000000000e+00 0.0000e+00 1.0000e+00
        6  2    1    2  501    0 +2.1112718737e+02 +4.0016831935e+01 +4.6275586339e+02 5.3883024752e+02 1.7325995051e+02 0.0000e+00 0.0000e+00
       24  2    3    3    0    0 +1.9082482964e+02 -2.4126190326e+01 +3.3832276698e+02 3.9729509812e+02 7.9905642232e+01 0.0000e+00 0.0000e+00
       -6  2    1    2    0  503 -1.6175988209e+02 +3.1167697311e+01 +1.7128230158e+02 2.9339389704e+02 1.7206006852e+02 0.0000e+00 0.0000e+00
      -24  2    5    5    0    0 -1.5380217759e+02 +1.8165577152e+01 +6.5537132937e+01 1.8645227334e+02 8.0524756543e+01 0.0000e+00 0.0000e+00
        5  1    3    3  501    0 +2.0302357728e+01 +6.4143022261e+01 +1.2443309641e+02 1.4153514940e+02 4.7000000000e+00 0.0000e+00 -1.0000e+00
      -13  1    4    4    0    0 +1.1480808086e+01 -2.6074957669e+01 +3.8031125497e+01 4.7519247451e+01 0.0000000000e+00 0.0000e+00 1.0000e+00
       14  1    4    4    0    0 +1.7934402156e+02 +1.9487673432e+00 +3.0029164149e+02 3.4977585067e+02 0.0000000000e+00 0.0000e+00 -1.0000e+00
       -5  1    5    5    0  503 -7.9577045043e+00 +1.3002120159e+01 +1.0574516864e+02 1.0694162370e+02 4.7000000000e+00 0.0000e+00 1.0000e+00
       13  1    6    6    0    0 -5.6964674521e+01 +9.2651788876e-01 +6.7171615436e+01 8.8078706274e+01 0.0000000000e+00 0.0000e+00 -1.0000e+00
      -14  1    6    6    0    0 -9.6837503064e+01 +1.7239059263e+01 -1.6344824982e+00 9.8373567065e+01 0.0000000000e+00 0.0000e+00 1.0000e+00
       21  1    1    2  504  502 -4.9367305282e+01 -7.1184529246e+01 -6.3417205666e+01 1.0735972247e+02 0.0000000000e+00 0.0000e+00 1.0000e+00
<mgrwt>
<rscale>  3 0.25885985E+03</rscale>
<asrwt>0</asrwt>
<pdfrwt beam="1">  1       21 0.11616960E+00 0.25906032E+03</pdfrwt>
<pdfrwt beam="2">  1       21 0.28381763E-01 0.25906032E+03</pdfrwt>
<totfact> 0.64875818E+03</totfact>
</mgrwt>
</event>
<event>
14      3 +1.4674046e+01 2.87306100e+02 7.54677100e-03 1.09178100e-01
       21 -1    0    0  504  502 +0.0000000000e+00 +0.0000000000e+00 +3.1125618865e+02 3.1125618865e+02 0.0000000000e+00 0.0000e+00 1.0000e+00
       21 -1    0    0  505  503 -0.0000000000e+00 -0.0000000000e+00 -1.0374006328e+03 1.0374006328e+03 0.0000000000e+00 0.0000e+00 -1.0000e+00
       -6  2    1    2    0  503 +8.4570466987e+01 +2.1539726320e+02 -2.2552176810e+02 3.6614879786e+02 1.7221129291e+02 0.0000e+00 0.0000e+00
      -24  2    3    3    0    0 +1.1112199958e+02 +1.0661629864e+02 -1.1668341694e+02 2.0992409169e+02 8.2085142125e+01 0.0000e+00 0.0000e+00
        6  2    1    2  501    0 -8.5365529976e+01 -2.1968676005e+02 +3.9429264531e+01 2.9467647653e+02 1.7242393300e+02 0.0000e+00 0.0000e+00
       24  2    5    5    0    0 -1.2777362927e+01 -1.4607408422e+02 +7.7367352516e+01 1.8445281048e+02 8.0846972575e+01 0.0000e+00 0.0000e+00
        5  1    5    5  501    0 -7.2588167049e+01 -7.3612675828e+01 -3.7938087984e+01 1.1022366605e+02 4.7000000000e+00 0.0000e+00 -1.0000e+00
      -13  1    6    6    0    0 -4.7285801144e+01 -8.3797864108e+01 +4.2848935363e+01 1.0532834510e+02 0.0000000000e+00 0.0000e+00 1.0000e+00
       14  1    6    6    0    0 +3.4508438216e+01 -6.2276220115e+01 +3.4518417152e+01 7.9124465387e+01 0.0000000000e+00 0.0000e+00 -1.0000e+00
       -5  1    3    3    0  503 -2.6551532594e+01 +1.0878096456e+02 -1.0883835116e+02 1.5622470617e+02 4.7000000000e+00 0.0000e+00 1.0000e+00
       13  1    4    4    0    0 +7.6173833664e+01 +6.2263833388e+01 -1.1775706677e+02 1.5344694411e+02 0.0000000000e+00 0.0000e+00 -1.0000e+00
      -14  1    4    4    0    0 +3.4948165918e+01 +4.4352465250e+01 +1.0736498295e+00 5.6477147579e+01 0.0000000000e+00 0.0000e+00 1.0000e+00
       21  1    1    2  504  501 +2.4540991875e+01 +2.9393596306e+00 +7.1585254657e+01 7.5732085681e+01 0.0000000000e+00 0.0000e+00 1.0000e+00
       21  1    1    2  505  502 -2.3745928886e+01 +1.3501372195e+00 -6.1163719528e+02 6.1209946141e+02 0.0000000000e+00 0.0000e+00 -1.0000e+00
<mgrwt>
<rscale>  4 0.28727423E+03</rscale>
<asrwt>0</asrwt>
<pdfrwt beam="1">  1       21 0.47885568E-01 0.28730613E+03</pdfrwt>
<pdfrwt beam="2">  1       21 0.15960009E+00 0.28730613E+03</pdfrwt>
<totfact> 0.97231421E+02</totfact>
</mgrwt>
</event>
<event>
12      1 +1.4674046e+01 1.91450900e+02 7.54677100e-03 1.15741400e-01
       21 -1    0    0  501  502 +0.0000000000e+00 +0.0000000000e+00 +3.9847183318e+02 3.9847183318e+02 0.0000000000e+00 0.0000e+00 -1.0000e+00
       21 -1    0    0  502  503 -0.0000000000e+00 -0.0000000000e+00 -1.8458354539e+02 1.8458354539e+02 0.0000000000e+00 0.0000e+00 -1.0000e+00
       -6  2    1    2    0  503 -2.6811124138e+01 +7.5859576800e+01 -1.0030409297e+02 2.1512836422e+02 1.7246967924e+02 0.0000e+00 0.0000e+00
      -24  2    3    3    0    0 -7.1425663109e+01 +7.5779082588e+01 -3.5712739163e+01 1.3648615829e+02 8.0678231011e+01 0.0000e+00 0.0000e+00
        6  2    1    2  501    0 +2.6811124138e+01 -7.5859576800e+01 +3.1419238076e+02 3.6792701434e+02 1.7372370012e+02 0.0000e+00 0.0000e+00
       24  2    5    5    0    0 -2.7775112045e+01 -4.2090798731e+00 +7.9649264595e+01 1.1663830741e+02 8.0444491438e+01 0.0000e+00 0.0000e+00
        5  1    5    5  501    0 +5.4586236184e+01 -7.1650496927e+01 +2.3454311616e+02 2.5128870693e+02 4.7000000000e+00 0.0000e+00 -1.0000e+00
      -13  1    6    6    0    0 +2.7071883860e-01 -3.9708903002e+01 +4.1763865395e+01 5.7628905239e+01 0.0000000000e+00 0.0000e+00 1.0000e+00
       14  1    6    6    0    0 -2.8045830884e+01 +3.5499823129e+01 +3.7885399200e+01 5.9009402172e+01 0.0000000000e+00 0.0000e+00 -1.0000e+00
       -5  1    3    3    0  503 +4.4614538970e+01 +8.0494211369e-02 -6.4591353806e+01 7.8642205929e+01 4.7000000000e+00 0.0000e+00 1.0000e+00
       13  1    4    4    0    0 +1.7290335356e+01 +1.9325653115e+01 -1.2558678226e+01 2.8812444600e+01 0.0000000000e+00 0.0000e+00 -1.0000e+00
      -14  1    4    4    0    0 -8.8715998465e+01 +5.6453429474e+01 -2.3154060937e+01 1.0767371369e+02 0.0000000000e+00 0.0000e+00 1.0000e+00
<mgrwt>
<rscale>  2 0.19116594E+03</rscale>
<asrwt>0</asrwt>
<pdfrwt beam="1">  1       21 0.61303359E-01 0.19145087E+03</pdfrwt>
<pdfrwt beam="2">  1       21 0.28397468E-01 0.19145087E+03</pdfrwt>
<totfact> 0.29352964E+04</totfact>
</mgrwt>
</event>
<event>
13      2 +1.4674046e+01 2.56702900e+02 7.54677100e-03 1.10945700e-01
       21 -1    0    0  501  502 +0.0000000000e+00 +0.0000000000e+00 +2.8008259240e+02 2.8008259240e+02 0.0000000000e+00 0.0000e+00 1.0000e+00
       21 -1    0    0  502  503 -0.0000000000e+00 -0.0000000000e+00 -5.1134107493e+02 5.1134107493e+02 0.0000000000e+00 0.0000e+00 1.0000e+00
        6  2    1    2  501    0 +1.1878606883e+02 -1.8586228162e+02 -3.2803399561e+02 4.3160149727e+02 1.7325885919e+02 0.0000e+00 0.0000e+00
       24  2    3    3    0    0 +4.8951261493e+01 -6.1309632905e+01 -2.3648807748e+02 2.6191647217e+02 8.0737417054e+01 0.0000e+00 0.0000e+00
       -6  2    1    2    0  504 -1.0769324071e+02 +1.4879785697e+02 +1.5160254011e+02 2.9271907547e+02 1.7018369677e+02 0.0000e+00 0.0000e+00
      -24  2    5    5    0    0 +9.9479228539e+00 +4.4956694646e+01 +5.9440039451e+01 1.1067939055e+02 8.1220340069e+01 0.0000e+00 0.0000e+00
        5  1    3    3  501    0 +6.9834807338e+01 -1.2455264871e+02 -9.1545918133e+01 1.6968502510e+02 4.7000000000e+00 0.0000e+00 -1.0000e+00
      -13  1    4    4    0    0 +6.1410739245e+01 -5.8967783109e+01 -1.3475798510e+02 1.5939947580e+02 0.0000000000e+00 0.0000e+00 1.0000e+00
       14  1    4    4    0    0 -1.2459477753e+01 -2.3418497952e+00 -1.0173009239e+02 1.0251699636e+02 0.0000000000e+00 0.0000e+00 -1.0000e+00
       -5  1    5    5    0  504 -1.1764116357e+02 +1.0384116232e+02 +9.2162500659e+01 1.8203968492e+02 4.7000000000e+00 0.0000e+00 1.0000e+00
       13  1    6    6    0    0 -2.2015181712e+01 +8.0310573158e+00 -1.0252025835e+01 2.5578704837e+01 0.0000000000e+00 0.0000e+00 -1.0000e+00
      -14  1    6    6    0    0 +3.1963104566e+01 +3.6925637330e+01 +6.9692065286e+01 8.5100685718e+01 0.0000000000e+00 0.0000e+00 1.0000e+00
       21  1    1    2  504  503 -1.1092828120e+01 +3.7064424644e+01 -5.4827027032e+01 6.7103094586e+01 0.0000000000e+00 0.0000e+00 -1.0000e+00
<mgrwt>
<rscale>  3 0.25618496E+03</rscale>
<asrwt>0</asrwt>
<pdfrwt beam="1">  1       21 0.43089630E-01 0.25670288E+03</pdfrwt>
<pdfrwt beam="2">  1       21 0.78667857E-01 0.25670288E+03</pdfrwt>
<totfact> 0.70936857E+03</totfact>
</mgrwt>
</event>
<event>
12      1 +1.4674046e+01 1.95489800e+02 7.54677100e-03 1.15439800e-01
       21 -1    0    0  501  502 +0.0000000000e+00 +0.0000000000e+00 +3.5140657690e+02 3.5140657690e+02 0.0000000000e+00 0.0000e+00 -1.0000e+00
       21 -1    0    0  502  503 -0.0000000000e+00 -0.0000000000e+00 -4.6576634585e+02 4.6576634585e+02 0.0000000000e+00 0.0000e+00 1.0000e+00
        6  2    1    2  501    0 -3.8650915142e+01 +8.4516906559e+01 +3.0166522153e+02 3.5750669066e+02 1.6784554581e+02 0.0000e+00 0.0000e+00
       24  2    3    3    0    0 -4.1466302901e+01 +3.6437837147e+00 +2.3517223990e+02 2.5266492888e+02 8.2467280965e+01 0.0000e+00 0.0000e+00
       -6  2    1    2    0  503 +3.8650915142e+01 -8.4516906559e+01 -4.1602499048e+02 4.5966623209e+02 1.7198619560e+02 0.0000e+00 0.0000e+00
      -24  2    5    5    0    0 -3.1510614174e+01 -5.4474370809e+01 -1.4347356591e+02 1.7659104210e+02 8.1482244404e+01 0.0000e+00 0.0000e+00
        5  1    3    3  501    0 +2.8153877595e+00 +8.0873122845e+01 +6.6492981632e+01 1.0484176178e+02 4.7000000000e+00 0.0000e+00 -1.0000e+00
      -13  1    4    4    0    0 -2.7936123422e+01 -4.2609652312e-01 +1.4383210132e+01 3.1424278573e+01 0.0000000000e+00 0.0000e+00 1.0000e+00
       14  1    4    4    0    0 -1.3530179479e+01 +4.0698802378e+00 +2.2078902977e+02 2.2124065031e+02 0.0000000000e+00 0.0000e+00 -1.0000e+00
       -5  1    5    5    0  503 +7.0161529316e+01 -3.0042535750e+01 -2.7255142457e+02 2.8307518999e+02 4.7000000000e+00 0.0000e+00 1.0000e+00
       13  1    6    6    0    0 +2.5911219117e+01 -1.8804531566e+01 -6.8682054338e+01 7.5777478657e+01 0.0000000000e+00 0.0000e+00 -1.0000e+00
      -14  1    6    6    0    0 -5.7421833291e+01 -3.5669839243e+01 -7.4791511572e+01 1.0081356344e+02 0.0000000000e+00 0.0000e+00 1.0000e+00
<mgrwt>
<rscale>  2 0.19457520E+03</rscale>
<asrwt>0</asrwt>
<pdfrwt beam="1">  1       21 0.54062550E-01 0.19548978E+03</pdfrwt>
<pdfrwt beam="2">  1       21 0.71656361E-01 0.19548978E+03</pdfrwt>
<totfact> 0.56793390E+03</totfact>
</mgrwt>
</event>
<event>
14      3 +1.4674046e+01 3.24991900e+02 7.54677100e-03 1.07342000e-01
       21 -1    0    0  501  503 +0.0000000000e+00 +0.0000000000e+00 +7.4891064229e+02 7.4891064229e+02 0.0000000000e+00 0.0000e+00 -1.0000e+00
       -3 -1    0    0    0  501 -0.0000000000e+00 -0.0000000000e+00 -3.9248699361e+02 3.9248699361e+02 0.0000000000e+00 0.0000e+00 -1.0000e+00
        6  2    1    2  502    0 +3.0689960951e+02 -8.5464142851e+01 +1.0605400381e+02 3.7745815597e+02 1.7244047598e+02 0.0000e+00 0.0000e+00
       24  2    3    3    0    0 +1.3713606625e+02 +1.3561181725e+01 +8.2745744550e+01 1.7949088475e+02 7.9874358523e+01 0.0000e+00 0.0000e+00
       -6  2    1    2    0  503 -2.3437652433e+02 +1.1281839415e+02 +4.3535421295e+02 5.3590353800e+02 1.7320209608e+02 0.0000e+00 0.0000e+00
      -24  2    5    5    0    0 -2.0000730623e+02 +2.4396453777e+01 +3.1327834968e+02 3.8122875309e+02 8.1203006727e+01 0.0000e+00 0.0000e+00
        5  1    3    3  502    0 +1.6976354326e+02 -9.9025324575e+01 +2.3308259262e+01 1.9796727123e+02 4.7000000000e+00 0.0000e+00 -1.0000e+00
      -13  1    4    4    0    0 +1.2066519586e+01 -1.0876158409e+01 -1.2415650492e+01 2.0446028803e+01 0.0000000000e+00 0.0000e+00 1.0000e+00
       14  1    4    4    0    0 +1.2506954667e+02 +2.4437340134e+01 +9.5161395042e+01 1.5904485595e+02 0.0000000000e+00 0.0000e+00 -1.0000e+00
       -5  1    5    5    0  503 -3.4369218096e+01 +8.8421940373e+01 +1.2207586328e+02 1.5467478491e+02 4.7000000000e+00 0.0000e+00 1.0000e+00
       13  1    6    6    0    0 -1.3264997398e+02 +5.3534925010e+01 +2.2217938675e+02 2.6424549890e+02 0.0000000000e+00 0.0000e+00 -1.0000e+00
      -14  1    6    6    0    0 -6.7357332248e+01 -2.9138471233e+01 +9.1098962927e+01 1.1698325419e+02 0.0000000000e+00 0.0000e+00 1.0000e+00
       21  1    1    2  504  502 -3.0218088353e+01 -4.5279653864e+01 -2.2026208039e+01 5.8724217818e+01 0.0000000000e+00 0.0000e+00 -1.0000e+00
       -3  1    1    2    0  504 -4.2304996834e+01 +1.7925402565e+01 -1.6295836004e+02 1.6931172411e+02 0.0000000000e+00 0.0000e+00 -1.0000e+00
<mgrwt>
<rscale>  4 0.32489057E+03</rscale>
<asrwt>0</asrwt>
<pdfrwt beam="1">  1       21 0.11521702E+00 0.32499193E+03</pdfrwt>
<pdfrwt beam="2">  1       -3 0.60382614E-01 0.32499193E+03</pdfrwt>
<totfact> 0.74624133E+01</totfact>
</mgrwt>
</event>
<event>
14      3 +1.4674046e+01 2.51072400e+02 7.54677100e-03 1.11317700e-01
       21 -1    0    0  501  502 +0.0000000000e+00 +0.0000000000e+00 +1.0229979143e+03 1.0229979143e+03 0.0000000000e+00 0.0000e+00 1.0000e+00
       21 -1    0    0  502  503 -0.0000000000e+00 -0.0000000000e+00 -8.8417992199e+01 8.8417992199e+01 0.0000000000e+00 0.0000e+00 1.0000e+00
       -6  2    1    2    0  504 -1.5475327103e+02 -1.4504728155e-01 +4.9883460447e+02 5.5111205504e+02 1.7589752316e+02 0.0000e+00 0.0000e+00
      -24  2    3    3    0    0 -7.5565066450e+01 -1.7964331809e+01 +1.9019646815e+02 2.2119097135e+02 8.1963118681e+01 0.0000e+00 0.0000e+00
        6  2    1    2  501    0 +2.2356230052e+02 -8.2374904103e+00 +3.6840701737e+02 4.6366330015e+02 1.7091508707e+02 0.0000e+00 0.0000e+00
       24  2    5    5    0    0 +1.9436042309e+02 +4.4465334197e+01 +3.2707565409e+02 3.9044643762e+02 7.5609504326e+01 0.0000e+00 0.0000e+00
        5  1    5    5  501    0 +2.9201877433e+01 -5.2702824607e+01 +4.1331363286e+01 7.3216862526e+01 4.7000000000e+00 0.0000e+00 -1.0000e+00
      -13  1    6    6    0    0 +1.4672076843e+02 +3.6852583255e+01 +1.7716807501e+02 2.3296700106e+02 0.0000000000e+00 0.0000e+00 1.0000e+00
       14  1    6    6    0    0 +4.7639654654e+01 +7.6127509420e+00 +1.4990757908e+02 1.5747943655e+02 0.0000000000e+00 0.0000e+00 -1.0000e+00
       -5  1    3    3    0  505 +7.4459236940e+00 +2.7687170861e+01 +6.6821987254e+01 7.2864869385e+01 4.7000000000e+00 0.0000e+00 1.0000e+00
       13  1    4    4    0    0 -3.5720929151e+01 +2.0536926376e+01 +1.4166327884e+02 1.4753384254e+02 0.0000000000e+00 0.0000e+00 -1.0000e+00
      -14  1    4    4    0    0 -3.9844137299e+01 -3.8501258185e+01 +4.8533189315e+01 7.3657128807e+01 0.0000000000e+00 0.0000e+00 1.0000e+00
       21  1    1    2  504  503 -6.8809029492e+01 +8.3825376919e+00 +6.7338300263e+01 9.6640551324e+01 0.0000000000e+00 0.0000e+00 1.0000e+00
       21  1    3    3  505  504 -8.6634128274e+01 -9.8678863334e+00 +2.4181614906e+02 2.5705621430e+02 0.0000000000e+00 0.0000e+00 1.0000e+00
<mgrwt>
<rscale>  4 0.25020161E+03</rscale>
<asrwt>0</asrwt>
<pdfrwt beam="1">  1       21 0.15738429E+00 0.25107240E+03</pdfrwt>
<pdfrwt beam="2">  1       21 0.13602769E-01 0.25107240E+03</pdfrwt>
<totfact> 0.11848756E+04</totfact>
</mgrwt>
</event>
<event>
13      3 +1.4674046e+01 3.32713000e+02 7.54677100e-03 1.08386000e-01
       21 -1    0    0  504  503 +0.0000000000e+00 +0.0000000000e+00 +3.7037483792e+02 3.7037483792e+02 0.0000000000e+00 0.0000e+00 -1.0000e+00
        2 -1    0    0  501    0 -0.0000000000e+00 -0.0000000000e+00 -2.3798043184e+03 2.3798043184e+03 0.0000000000e+00 0.0000e+00 -1.0000e+00
        6  2    1    2  501    0 -7.6236897494e+01 +1.2744149978e+02 -2.4959180571e+02 3.3850604641e+02 1.7388753138e+02 0.0000e+00 0.0000e+00
       24  2    3    3    0    0 -8.6253697257e+01 +1.2546102686e+02 -1.2339437864e+02 2.1180900954e+02 8.0353682503e+01 0.0000e+00 0.0000e+00
      -24  2    1    2    0    0 +5.6754076702e+00 -4.2661081381e+00 -1.4677119467e+01 8.2528657297e+01 8.0902110655e+01 0.0000e+00 0.0000e+00
        5  1    3    3  501    0 +1.0016799763e+01 +1.9804729179e+00 -1.2619742707e+02 1.2669703686e+02 4.7000000000e+00 0.0000e+00 -1.0000e+00
      -13  1    4    4    0    0 -2.5494255636e+01 +6.4701481421e+01 -1.1119759563e+01 7.0426471027e+01 0.0000000000e+00 0.0000e+00 1.0000e+00
       14  1    4    4    0    0 -6.0759441621e+01 +6.0759545440e+01 -1.1227461908e+02 1.4138253852e+02 0.0000000000e+00 0.0000e+00 -1.0000e+00
       -5  1    1    2    0  503 +9.3513480902e+01 -1.1656137958e+02 -5.9926053541e+02 6.1762982896e+02 4.7000000000e+00 0.0000e+00 1.0000e+00
       13  1    5    5    0    0 +2.4712663684e+00 -2.5734618075e+01 +2.5846909193e+01 3.6557358216e+01 0.0000000000e+00 0.0000e+00 -1.0000e+00
      -14  1    5    5    0    0 +3.2041413018e+00 +2.1468509937e+01 -4.0524028660e+01 4.5971299081e+01 0.0000000000e+00 0.0000e+00 1.0000e+00
       21  1    1    2  504  502 -7.8860081974e+00 -2.1077803447e+01 +2.8228312166e+02 2.8317878398e+02 0.0000000000e+00 0.0000e+00 -1.0000e+00
        2  1    1    2  502    0 -1.5065982880e+01 +1.4463791385e+01 -1.4281831416e+03 1.4283358397e+03 0.0000000000e+00 0.0000e+00 -1.0000e+00
<mgrwt>
<rscale>  4 0.30277909E+03</rscale>
<asrwt>0</asrwt>
<pdfrwt beam="1">  1       21 0.56980744E-01 0.33271302E+03</pdfrwt>
<pdfrwt beam="2">  1        2 0.36612374E+00 0.33271302E+03</pdfrwt>
<totfact> 0.15899729E+02</totfact>
</mgrwt>
</event>
<event>
13      2 +1.4674046e+01 2.17438400e+02 7.54677100e-03 1.13582700e-01
       21 -1    0    0  504  502 +0.0000000000e+00 +0.0000000000e+00 +3.1382141413e+02 3.1382141413e+02 0.0000000000e+00 0.0000e+00 -1.0000e+00
       21 -1    0    0  502  503 -0.0000000000e+00 -0.0000000000e+00 -3.6545919606e+02 3.6545919606e+02 0.0000000000e+00 0.0000e+00 -1.0000e+00
       -6  2    1    2    0  503 -2.1090899401e+01 +1.3607031131e+02 +1.4104911383e+02 2.6259413813e+02 1.7349603225e+02 0.0000e+00 0.0000e+00
      -24  2    3    3    0    0 +4.0727090878e+01 +1.0555571937e+02 +5.5455500947e+01 1.5258977089e+02 8.6067530310e+01 0.0000e+00 0.0000e+00
        6  2    1    2  501    0 +4.0146945983e-01 -1.3004331676e+02 -2.6436282726e+02 3.4184118945e+02 1.7336743914e+02 0.0000e+00 0.0000e+00
       24  2    5    5    0    0 +4.1682553037e+01 -1.4142689774e+01 -9.2009061803e+01 1.3002760711e+02 8.0647754180e+01 0.0000e+00 0.0000e+00
        5  1    5    5  501    0 -4.1281083578e+01 -1.1590062698e+02 -1.7235376546e+02 2.1181358234e+02 4.7000000000e+00 0.0000e+00 -1.0000e+00
      -13  1    6    6    0    0 +2.7024345285e+01 +2.2230253575e+01 -8.2589279036e+01 8.9696646669e+01 0.0000000000e+00 0.0000e+00 1.0000e+00
       14  1    6    6    0    0 +1.4658207752e+01 -3.6372943349e+01 -9.4197827671e+00 4.0330960437e+01 0.0000000000e+00 0.0000e+00 -1.0000e+00
       -5  1    3    3    0  503 -6.1817990279e+01 +3.0514591945e+01 +8.5593612886e+01 1.1000436723e+02 4.7000000000e+00 0.0000e+00 1.0000e+00
       13  1    4    4    0    0 +2.6677113025e+01 +2.5057140283e+01 -1.9703165627e+01 4.1566132539e+01 0.0000000000e+00 0.0000e+00 -1.0000e+00
      -14  1    4    4    0    0 +1.4049977853e+01 +8.0498579083e+01 +7.5158666575e+01 1.1102363835e+02 0.0000000000e+00 0.0000e+00 1.0000e+00
       21  1    1    2  504  501 +2.0689429942e+01 -6.0269945523e+00 +7.1675931499e+01 7.4845282623e+01 0.0000000000e+00 0.0000e+00 -1.0000e+00
<mgrwt>
<rscale>  3 0.21741273E+03</rscale>
<asrwt>0</asrwt>
<pdfrwt beam="1">  1       21 0.48280217E-01 0.21743838E+03</pdfrwt>
<pdfrwt beam="2">  1       21 0.56224492E-01 0.21743838E+03</pdfrwt>
<totfact> 0.12005807E+04</totfact>
</mgrwt>
</event>
<event>
13      3 +1.4674046e+01 5.97844600e+02 7.54677100e-03 1.01529300e-01
       21 -1    0    0  505  502 +0.0000000000e+00 +0.0000000000e+00 +3.0202718327e+02 3.0202718327e+02 0.0000000000e+00 0.0000e+00 -1.0000e+00
       21 -1    0    0  504  503 -0.0000000000e+00 -0.0000000000e+00 -1.5472871167e+03 1.5472871167e+03 0.0000000000e+00 0.0000e+00 -1.0000e+00
      -24  2    1    2    0    0 -4.7057013056e+01 -3.1577545027e+02 -4.4199467350e+02 5.5110807415e+02 8.0201748866e+01 0.0000e+00 0.0000e+00
        6  2    1    2  501    0 +1.9795385744e+02 +2.4908605663e+02 -4.3652181781e+02 5.6591990907e+02 1.6877337699e+02 0.0000e+00 0.0000e+00
       24  2    4    4    0    0 +2.0414261065e+01 +8.4844038665e+01 -1.3871240394e+02 1.8224258927e+02 7.9724383876e+01 0.0000e+00 0.0000e+00
        5  1    4    4  501    0 +1.7753959637e+02 +1.6424201797e+02 -2.9780941387e+02 3.8367731981e+02 4.7000000000e+00 0.0000e+00 -1.0000e+00
      -13  1    5    5    0    0 +8.2079710197e+00 +1.9320357230e+01 +6.9036783147e+00 2.2097686893e+01 0.0000000000e+00 0.0000e+00 1.0000e+00
       14  1    5    5    0    0 +1.2206290045e+01 +6.5523681435e+01 -1.4561608225e+02 1.6014490237e+02 0.0000000000e+00 0.0000e+00 -1.0000e+00
       -5  1    1    2    0  503 +3.2836102637e+01 +2.3064333196e+02 -3.8760958344e+02 4.5225859349e+02 4.7000000000e+00 0.0000e+00 1.0000e+00
       13  1    3    3    0    0 -1.5126550133e+01 -1.1549288418e+02 -2.2947259235e+02 2.5734235845e+02 0.0000000000e+00 0.0000e+00 -1.0000e+00
      -14  1    3    3    0    0 -3.1930462923e+01 -2.0028256609e+02 -2.1252208115e+02 2.9376571570e+02 0.0000000000e+00 0.0000e+00 1.0000e+00
       21  1    1    2  504  502 -1.1425782759e+02 -2.3790072940e+01 +3.7798297512e+01 1.2267652599e+02 0.0000000000e+00 0.0000e+00 -1.0000e+00
       21  1    1    2  505  501 -6.9475119432e+01 -1.4016386539e+02 -1.6932156242e+01 1.5735119731e+02 0.0000000000e+00 0.0000e+00 -1.0000e+00
<mgrwt>
<rscale>  4 0.49424154E+03</rscale>
<asrwt>0</asrwt>
<pdfrwt beam="1">  1       21 0.46465719E-01 0.59784463E+03</pdfrwt>
<pdfrwt beam="2">  1       21 0.23804418E+00 0.59784463E+03</pdfrwt>
<totfact> 0.26060078E+02</totfact>
</mgrwt>
</event>
<event>
14      3 +1.4674046e+01 2.37514300e+02 7.54677100e-03 1.12184400e-01
       21 -1    0    0  504  502 +0.0000000000e+00 +0.0000000000e+00 +3.7838279543e+02 3.7838279543e+02 0.0000000000e+00 0.0000e+00 -1.0000e+00
       21 -1    0    0  502  503 -0.0000000000e+00 -0.0000000000e+00 -4.3457895578e+02 4.3457895578e+02 0.0000000000e+00 0.0000e+00 -1.0000e+00
       -6  2    1    2    0  503 +1.1416384328e+02 -1.4003615620e+02 -2.9464144476e+02 3.8648933562e+02 1.7296507574e+02 0.0000e+00 0.0000e+00
      -24  2    3    3    0    0 -4.4670054850e+00 -9.0784887529e+01 -1.4035570784e+02 1.8567811990e+02 8.0714246228e+01 0.0000e+00 0.0000e+00
        6  2    1    2  501    0 -3.8327728318e+01 +1.6209607097e+02 +1.1987955578e+02 2.6638504082e+02 1.6984031057e+02 0.0000e+00 0.0000e+00
       24  2    5    5    0    0 -6.1892925882e+01 +1.2872192153e+02 +1.4900415227e+02 2.1599174257e+02 6.3640616829e+01 0.0000e+00 0.0000e+00
        5  1    5    5  501    0 +2.3565197563e+01 +3.3374149446e+01 -2.9124596490e+01 5.0393298246e+01 4.7000000000e+00 0.0000e+00 -1.0000e+00
      -13  1    6    6    0    0 -6.8278273639e+01 +1.2459439972e+02 +1.1989047265e+02 1.8590162056e+02 0.0000000000e+00 0.0000e+00 1.0000e+00
       14  1    6    6    0    0 +6.3853477575e+00 +4.1275218104e+00 +2.9113679615e+01 3.0090122017e+01 0.0000000000e+00 0.0000e+00 -1.0000e+00
       -5  1    3    3    0  503 +1.1863084876e+02 -4.9251268673e+01 -1.5428573692e+02 2.0081121572e+02 4.7000000000e+00 0.0000e+00 1.0000e+00
       13  1    4    4    0    0 +9.6793608714e+00 -3.3260001607e+01 -1.1696835940e+02 1.2198981447e+02 0.0000000000e+00 0.0000e+00 -1.0000e+00
      -14  1    4    4    0    0 -1.4146366356e+01 -5.7524885922e+01 -2.3387348443e+01 6.3688305431e+01 0.0000000000e+00 0.0000e+00 1.0000e+00
       21  1    1    2  504  505 -5.2939778035e+01 -3.1224634512e+01 +1.2058209763e+02 1.3534267682e+02 0.0000000000e+00 0.0000e+00 -1.0000e+00
       21  1    1    2  505  501 -2.2896336923e+01 +9.1647197403e+00 -2.0163690013e+00 2.4744697945e+01 0.0000000000e+00 0.0000e+00 1.0000e+00
<mgrwt>
<rscale>  4 0.23694581E+03</rscale>
<asrwt>0</asrwt>
<pdfrwt beam="1">  1       21 0.58212738E-01 0.23751430E+03</pdfrwt>
<pdfrwt beam="2">  1       21 0.66858301E-01 0.23751430E+03</pdfrwt>
<totfact> 0.54878932E+03</totfact>
</mgrwt>
</event>
<event>
13      2 +1.4674046e+01 1.76506800e+02 7.54677100e-03 1.17133200e-01
       21 -1    0    0  503  502 +0.0000000000e+00 +0.0000000000e+00 +2.0096291580e+03 2.0096291580e+03 0.0000000000e+00 0.0000e+00 1.0000e+00
       21 -1    0    0  504  503 -0.0000000000e+00 -0.0000000000e+00 -6.3940302227e+02 6.3940302227e+02 0.0000000000e+00 0.0000e+00 -1.0000e+00
        6  2    1    2  501    0 -1.2221237616e+02 +1.2327511892e+02 +2.5436765039e+02 3.5270909003e+02 1.7195400780e+02 0.0000e+00 0.0000e+00
       24  2    3    3    0    0 -1.2975087315e+02 +7.3342690992e+01 +1.1934535948e+02 2.0847599627e+02 8.3692812031e+01 0.0000e+00 0.0000e+00
       -6  2    1    2    0  502 -1.0117906134e+01 -3.0037436912e+01 +1.6903742241e+03 1.6994370851e+03 1.7238552427e+02 0.0000e+00 0.0000e+00
      -24  2    5    5    0    0 -2.9478102762e+01 -1.8669333627e+01 +4.4380549342e+02 4.5265733657e+02 8.1962465762e+01 0.0000e+00 0.0000e+00
        5  1    3    3  501    0 +7.5384969917e+00 +4.9932427926e+01 +1.3502229090e+02 1.4423309376e+02 4.7000000000e+00 0.0000e+00 -1.0000e+00
      -13  1    4    4    0    0 -4.3652966646e+01 +5.1398619717e+01 +1.0947587381e+01 6.8317269231e+01 0.0000000000e+00 0.0000e+00 1.0000e+00
       14  1    4    4    0    0 -8.6097906503e+01 +2.1944071276e+01 +1.0839777210e+02 1.4015872704e+02 0.0000000000e+00 0.0000e+00 -1.0000e+00
       -5  1    5    5    0  502 +1.9360196628e+01 -1.1368103285e+01 +1.2465687307e+03 1.2467797485e+03 4.7000000000e+00 0.0000e+00 1.0000e+00
       13  1    6    6    0    0 -4.8827581103e+01 -3.7297223767e+01 +2.7977752309e+02 2.8644489523e+02 0.0000000000e+00 0.0000e+00 -1.0000e+00
      -14  1    6    6    0    0 +1.9349478341e+01 +1.8627890140e+01 +1.6402797034e+02 1.6621244134e+02 0.0000000000e+00 0.0000e+00 1.0000e+00
       21  1    1    2  504  501 +1.3233028229e+02 -9.3237682007e+01 -5.7451573881e+02 5.9688600511e+02 0.0000000000e+00 0.0000e+00 -1.0000e+00
<mgrwt>
<rscale>  3 0.17640135E+03</rscale>
<asrwt>0</asrwt>
<pdfrwt beam="1">  1       21 0.30917371E+00 0.17650680E+03</pdfrwt>
<pdfrwt beam="2">  1       21 0.98369697E-01 0.17650680E+03</pdfrwt>
<totfact> 0.26624744E+01</totfact>
</mgrwt>
</event>
<event>
13      3 +1.4674046e+01 2.16011000e+02 7.54677100e-03 1.14249300e-01
        1 -1    0    0  504    0 -0.0000000000e+00 +0.0000000000e+00 +6.9297959781e+02 6.9297959781e+02 0.0000000000e+00 0.0000e+00 -1.0000e+00
       21 -1    0    0  501  503 +0.0000000000e+00 -0.0000000000e+00 -8.7223561257e+02 8.7223561257e+02 0.0000000000e+00 0.0000e+00 -1.0000e+00
        6  2    1    2  501    0 -2.5729021330e+01 -3.1402754160e+01 -5.1164103113e+02 5.4154893143e+02 1.7277321808e+02 0.0000e+00 0.0000e+00
       24  2    3    3    0    0 -3.7871335724e+01 +3.6833977348e+01 -1.8945613299e+02 2.1195996632e+02 7.9008993415e+01 0.0000e+00 0.0000e+00
      -24  2    1    2    0    0 +1.4359063309e+02 +1.3676595476e+02 -5.7766735755e+01 2.2207107643e+02 8.1580456838e+01 0.0000e+00 0.0000e+00
        5  1    3    3  501    0 +1.2142314393e+01 -6.8236731509e+01 -3.2218489815e+02 3.2958896511e+02 4.7000000000e+00 0.0000e+00 -1.0000e+00
      -13  1    4    4    0    0 -4.8096756910e+01 +2.6177129591e+01 -1.8943514461e+02 1.9719080646e+02 0.0000000000e+00 0.0000e+00 1.0000e+00
       14  1    4    4    0    0 +1.0225421186e+01 +1.0656847758e+01 -2.0988377152e-02 1.4769159864e+01 0.0000000000e+00 0.0000e+00 -1.0000e+00
       -5  1    1    2    0  502 -2.1718762198e+01 -3.5113682942e+01 -6.4061465330e-01 4.1559303992e+01 4.7000000000e+00 0.0000e+00 1.0000e+00
       13  1    5    5    0    0 +8.6877500298e+01 +9.7262701096e+01 +2.4008464741e+00 1.3043579703e+02 0.0000000000e+00 0.0000e+00 -1.0000e+00
      -14  1    5    5    0    0 +5.6713132789e+01 +3.9503253661e+01 -6.0167582229e+01 9.1635279406e+01 0.0000000000e+00 0.0000e+00 1.0000e+00
       21  1    1    2  504  503 -2.2585269952e+01 -1.9020179978e+01 -1.7992000664e+02 1.8232682319e+02 0.0000000000e+00 0.0000e+00 -1.0000e+00
        1  1    1    2  502    0 -7.3557579608e+01 -5.1229337675e+01 +5.7071237342e+02 5.7770907534e+02 0.0000000000e+00 0.0000e+00 -1.0000e+00
<mgrwt>
<rscale>  4 0.20883335E+03</rscale>
<asrwt>0</asrwt>
<pdfrwt beam="2">  1       21 0.13419009E+00 0.21601097E+03</pdfrwt>
<pdfrwt beam="1">  1        1 0.10661225E+00 0.21601097E+03</pdfrwt>
<totfact> 0.12467623E+02</totfact>
</mgrwt>
</event>
<event>
12      1 +1.4674046e+01 1.76925900e+02 7.54677100e-03 1.17094700e-01
       21 -1    0    0  503  502 +0.0000000000e+00 +0.0000000000e+00 +1.1344198273e+02 1.1344198273e+02 0.0000000000e+00 0.0000e+00 1.0000e+00
       21 -1    0    0  501  503 -0.0000000000e+00 -0.0000000000e+00 -4.3237788620e+02 4.3237788620e+02 0.0000000000e+00 0.0000e+00 1.0000e+00
        6  2    1    2  501    0 -1.6817011485e+01 +1.5609839661e+01 +4.9790384794e+00 1.7699593554e+02 1.7543172861e+02 0.0000e+00 0.0000e+00
       24  2    3    3    0    0 -1.3169571934e+01 +7.6065831277e+01 -1.9956469727e+01 1.1132935114e+02 7.7695015461e+01 0.0000e+00 0.0000e+00
       -6  2    1    2    0  502 +1.6817011485e+01 -1.5609839661e+01 -3.2391494195e+02 3.6882393339e+02 1.7488203241e+02 0.0000e+00 0.0000e+00
      -24  2    5    5    0    0 +7.7471867122e+01 -2.1167210855e+01 -1.8348053112e+02 2.1567756670e+02 8.0011039664e+01 0.0000e+00 0.0000e+00
        5  1    3    3  501    0 -3.6474395512e+00 -6.0455991616e+01 +2.4935508206e+01 6.5666584402e+01 4.7000000000e+00 0.0000e+00 -1.0000e+00
      -13  1    4    4    0    0 -4.8143622713e+00 +3.8293293731e+01 +2.9472804318e+01 4.8561307882e+01 0.0000000000e+00 0.0000e+00 1.0000e+00
       14  1    4    4    0    0 -8.3552096625e+00 +3.7772537546e+01 -4.9429274045e+01 6.2768043253e+01 0.0000000000e+00 0.0000e+00 -1.0000e+00
       -5  1    5    5    0  502 -6.0654855637e+01 +5.5573711940e+00 -1.4043441082e+02 1.5314636669e+02 4.7000000000e+00 0.0000e+00 1.0000e+00
       13  1    6    6    0    0 +3.4673646957e+01 -9.9003701089e+00 -1.1133514851e+01 3.7739028532e+01 0.0000000000e+00 0.0000e+00 -1.0000e+00
      -14  1    6    6    0    0 +4.2798220165e+01 -1.1266840746e+01 -1.7234701627e+02 1.7793853817e+02 0.0000000000e+00 0.0000e+00 1.0000e+00
<mgrwt>
<rscale>  2 0.17678947E+03</rscale>
<asrwt>0</asrwt>
<pdfrwt beam="1">  1       21 0.17452613E-01 0.17692589E+03</pdfrwt>
<pdfrwt beam="2">  1       21 0.66519675E-01 0.17692589E+03</pdfrwt>
<totfact> 0.62036045E+04</totfact>
</mgrwt>
</event>
<event>
14      3 +1.4674046e+01 2.30414500e+02 7.54677100e-03 1.12635600e-01
       21 -1    0    0  501  502 +0.0000000000e+00 +0.0000000000e+00 +1.6704010288e+02 1.6704010288e+02 0.0000000000e+00 0.0000e+00 -1.0000e+00
       21 -1    0    0  502  503 -0.0000000000e+00 -0.0000000000e+00 -2.1898562914e+03 2.1898562914e+03 0.0000000000e+00 0.0000e+00 -1.0000e+00
       -6  2    1    2    0  504 -1.0622901223e+02 -1.4896485633e+02 -1.5967229027e+01 2.5223192944e+02 1.7288974048e+02 0.0000e+00 0.0000e+00
      -24  2    3    3    0    0 -8.2623900541e+01 -1.7934972988e+02 -9.7634361121e+00 2.1297611604e+02 7.9186278940e+01 0.0000e+00 0.0000e+00
        6  2    1    2  501    0 +6.9563697063e+01 +7.5535684246e+01 -1.7377971409e+02 2.6573635472e+02 1.7283423749e+02 0.0000e+00 0.0000e+00
       24  2    5    5    0    0 +1.1558741793e+01 -2.2884751891e+01 -8.7596649279e+01 1.2255546303e+02 8.1788459902e+01 0.0000e+00 0.0000e+00
        5  1    5    5  501    0 +5.8004955270e+01 +9.8420436137e+01 -8.6183064813e+01 1.4318089169e+02 4.7000000000e+00 0.0000e+00 -1.0000e+00
      -13  1    6    6    0    0 -2.2593469446e+01 -5.3941297304e+00 -8.0177202836e+01 8.3474219684e+01 0.0000000000e+00 0.0000e+00 1.0000e+00
       14  1    6    6    0    0 +3.4152211239e+01 -1.7490622160e+01 -7.4194464423e+00 3.9081243348e+01 0.0000000000e+00 0.0000e+00 -1.0000e+00
       -5  1    3    3    0  504 -2.3605111689e+01 +3.0384873551e+01 -6.2037929146e+00 3.9255813392e+01 4.7000000000e+00 0.0000e+00 1.0000e+00
       13  1    4    4    0    0 -8.8997650810e+01 -1.0305028241e+02 -7.8331009735e+00 1.3638658301e+02 0.0000000000e+00 0.0000e+00 -1.0000e+00
      -14  1    4    4    0    0 +6.3737502689e+00 -7.6299447470e+01 -1.9303351385e+00 7.6589533034e+01 0.0000000000e+00 0.0000e+00 1.0000e+00
       21  1    1    2  504  505 +7.0134214294e+01 +5.3217017694e+01 -7.4938313184e+02 7.5453690253e+02 0.0000000000e+00 0.0000e+00 -1.0000e+00
       21  1    1    2  505  503 -3.3468899127e+01 +2.0212154388e+01 -1.0836861136e+03 1.0843912076e+03 0.0000000000e+00 0.0000e+00 -1.0000e+00
<mgrwt>
<rscale>  4 0.23040404E+03</rscale>
<asrwt>0</asrwt>
<pdfrwt beam="1">  1       21 0.25698478E-01 0.23041445E+03</pdfrwt>
<pdfrwt beam="2">  1       21 0.33690097E+00 0.23041445E+03</pdfrwt>
<totfact> 0.28381561E+02</totfact>
</mgrwt>
</event>
<event>
14      3 +1.4674046e+01 2.73959000e+02 7.54677100e-03 1.10088100e-01
       21 -1    0    0  503  502 +0.0000000000e+00 +0.0000000000e+00 +7.2156255566e+02 7.2156255566e+02 0.0000000000e+00 0.0000e+00 -1.0000e+00
       21 -1    0    0  504  503 -0.0000000000e+00 -0.0000000000e+00 -8.7631235822e+02 8.7631235822e+02 0.0000000000e+00 0.0000e+00 1.0000e+00
        6  2    1    2  501    0 -1.8378071355e+02 +1.6567275192e+02 +5.5685175887e+02 6.3324638269e+02 1.7232030768e+02 0.0000e+00 0.0000e+00
       24  2    3    3    0    0 -8.1862846481e+01 +1.0988895833e+02 +1.8825926803e+02 2.4674722673e+02 8.1642716173e+01 0.0000e+00 0.0000e+00
       -6  2    1    2    0  505 +1.5593680995e+02 +7.7571498300e+01 -6.3669197570e+01 2.3921635948e+02 1.5111940271e+02 0.0000e+00 0.0000e+00
      -24  2    5    5    0    0 +9.7267194946e+01 +9.6928475282e+01 -7.2298023990e+01 1.7665948193e+02 8.4412864840e+01 0.0000e+00 0.0000e+00
        5  1    3    3  501    0 -1.0191786707e+02 +5.5783793583e+01 +3.6859249084e+02 3.8649915596e+02 4.7000000000e+00 0.0000e+00 -1.0000e+00
      -13  1    4    4    0    0 -3.5087417297e+00 +6.8426758296e+01 +6.1525092439e+01 9.2086206997e+01 0.0000000000e+00 0.0000e+00 1.0000e+00
       14  1    4    4    0    0 -7.8354104751e+01 +4.1462200036e+01 +1.2673417559e+02 1.5466101974e+02 0.0000000000e+00 0.0000e+00 -1.0000e+00
       -5  1    5    5    0  505 +5.8669615007e+01 -1.9356976982e+01 +8.6288264200e+00 6.2556877547e+01 4.7000000000e+00 0.0000e+00 1.0000e+00
       13  1    6    6    0    0 +2.3419941942e+01 -3.8375305348e+00 -4.1791567552e+01 4.8059915102e+01 0.0000000000e+00 0.0000e+00 -1.0000e+00
      -14  1    6    6    0    0 +7.3847253004e+01 +1.0076600582e+02 -3.0506456438e+01 1.2859956683e+02 0.0000000000e+00 0.0000e+00 1.0000e+00
       21  1    1    2  504  501 +2.7190211870e+01 -5.7384617148e+01 -4.4782862053e+02 4.5230827460e+02 0.0000000000e+00 0.0000e+00 1.0000e+00
       21  1    1    2  505  502 +6.5369173023e-01 -1.8585963307e+02 -2.0010374333e+02 2.7310389710e+02 0.0000000000e+00 0.0000e+00 1.0000e+00
<mgrwt>
<rscale>  4 0.27069758E+03</rscale>
<asrwt>0</asrwt>
<pdfrwt beam="1">  1       21 0.11100962E+00 0.27395905E+03</pdfrwt>
<pdfrwt beam="2">  1       21 0.13481729E+00 0.27395905E+03</pdfrwt>
<totfact> 0.23129274E+02</totfact>
</mgrwt>
</event>
<event>
14      3 +1.4674046e+01 2.26289600e+02 7.54677100e-03 1.12958600e-01
        2 -1    0    0  504    0 -0.0000000000e+00 +0.0000000000e+00 +2.0959697248e+03 2.0959697248e+03 0.0000000000e+00 0.0000e+00 1.0000e+00
       21 -1    0    0  502  503 +0.0000000000e+00 -0.0000000000e+00 -1.5939224469e+02 1.5939224469e+02 0.0000000000e+00 0.0000e+00 -1.0000e+00
        6  2    1    2  501    0 +8.8494509158e+01 -1.0005273147e+02 +1.7597761095e+02 2.8137522938e+02 1.7424716045e+02 0.0000e+00 0.0000e+00
       24  2    3    3    0    0 +7.1724502367e+01 -9.4030293770e+00 +1.5114561439e+02 1.8578590115e+02 8.0240782128e+01 0.0000e+00 0.0000e+00
       -6  2    1    2    0  503 -1.4955596056e+02 +4.9929831721e+01 +2.8688444108e+01 2.3511109963e+02 1.7202973264e+02 0.0000e+00 0.0000e+00
      -24  2    5    5    0    0 -9.2891621275e+01 -3.7117801102e+01 +2.0413261119e+00 1.2777845491e+02 7.9476927875e+01 0.0000e+00 0.0000e+00
        5  1    3    3  501    0 +1.6770006791e+01 -9.0649702094e+01 +2.4831996562e+01 9.5589328227e+01 4.7000000000e+00 0.0000e+00 -1.0000e+00
      -13  1    4    4    0    0 +5.4971593198e+01 -4.0281794339e+01 +7.1708326110e+01 9.8927160312e+01 0.0000000000e+00 0.0000e+00 1.0000e+00
       14  1    4    4    0    0 +1.6752909169e+01 +3.0878764962e+01 +7.9437288279e+01 8.6858740840e+01 0.0000000000e+00 0.0000e+00 -1.0000e+00
       -5  1    5    5    0  503 -5.6664339283e+01 +8.7047632823e+01 +2.6647117996e+01 1.0733264473e+02 4.7000000000e+00 0.0000e+00 1.0000e+00
       13  1    6    6    0    0 -1.7896502562e+01 -4.3756869086e+01 +1.8406210059e+01 5.0732011245e+01 0.0000000000e+00 0.0000e+00 -1.0000e+00
      -14  1    6    6    0    0 -7.4995118713e+01 +6.6390679845e+00 -1.6364883947e+01 7.7046443663e+01 0.0000000000e+00 0.0000e+00 1.0000e+00
       21  1    1    2  504  501 -8.2356711651e+00 +3.5415756347e+01 +1.1951383137e+02 1.2492260790e+02 0.0000000000e+00 0.0000e+00 1.0000e+00
        2  1    1    2  502    0 +6.9297122565e+01 +1.4707143403e+01 +1.6123975937e+03 1.6139530326e+03 0.0000000000e+00 0.0000e+00 1.0000e+00
<mgrwt>
<rscale>  4 0.22586263E+03</rscale>
<asrwt>0</asrwt>
<pdfrwt beam="2">  1       21 0.24521885E-01 0.22628959E+03</pdfrwt>
<pdfrwt beam="1">  1        2 0.32245686E+00 0.22628959E+03</pdfrwt>
<totfact> 0.13208898E+03</totfact>
</mgrwt>
</event>
<event>
14      3 +1.4674046e+01 1.97048800e+02 7.54677100e-03 1.15235400e-01
        2 -1    0    0  503    0 -0.0000000000e+00 +0.0000000000e+00 +4.8626941993e+02 4.8626941993e+02 0.0000000000e+00 0.0000e+00 -1.0000e+00
       21 -1    0    0  501  503 +0.0000000000e+00 -0.0000000000e+00 -2.3966882751e+02 2.3966882751e+02 0.0000000000e+00 0.0000e+00 -1.0000e+00
        6  2    1    2  501    0 -1.1837806536e+02 -2.9901791916e+01 -1.1131482345e+02 2.3938904601e+02 1.7323002601e+02 0.0000e+00 0.0000e+00
       24  2    3    3    0    0 -1.4259626640e+02 +5.7999320251e+00 -1.0778058496e+02 1.9584923440e+02 7.9830656489e+01 0.0000e+00 0.0000e+00
       -6  2    1    2    0  504 -1.8940172352e+01 +3.8648207354e+01 +1.8210546170e+02 2.5535984542e+02 1.7376374021e+02 0.0000e+00 0.0000e+00
      -24  2    5    5    0    0 +3.1452127083e+01 +3.6624702173e+01 +1.8350639405e+02 2.0468903502e+02 7.6761965138e+01 0.0000e+00 0.0000e+00
        5  1    3    3  501    0 +2.4218201037e+01 -3.5701723941e+01 -3.5342384843e+00 4.3539811616e+01 4.7000000000e+00 0.0000e+00 -1.0000e+00
      -13  1    4    4    0    0 -7.1167349488e+01 -1.6241739700e+01 -1.1407281933e+01 7.3883095649e+01 0.0000000000e+00 0.0000e+00 1.0000e+00
       14  1    4    4    0    0 -7.1428916914e+01 +2.2041671725e+01 -9.6373303031e+01 1.2196613875e+02 0.0000000000e+00 0.0000e+00 -1.0000e+00
       -5  1    5    5    0  504 -5.0392299435e+01 +2.0235051808e+00 -1.4009323502e+00 5.0670810404e+01 4.7000000000e+00 0.0000e+00 1.0000e+00
       13  1    6    6    0    0 -2.3982384675e+00 -2.2187079068e+01 +3.6587667266e+01 4.2856451338e+01 0.0000000000e+00 0.0000e+00 -1.0000e+00
      -14  1    6    6    0    0 +3.3850365551e+01 +5.8811781241e+01 +1.4691872678e+02 1.6183258368e+02 0.0000000000e+00 0.0000e+00 1.0000e+00
       21  1    1    2  504  502 +6.8048653494e+01 +2.2911767971e+01 +1.0495421377e+02 1.2716507123e+02 0.0000000000e+00 0.0000e+00 -1.0000e+00
        2  1    1    2  502    0 +6.9269584222e+01 -3.1658183409e+01 +7.0855740396e+01 1.0402428477e+02 0.0000000000e+00 0.0000e+00 -1.0000e+00
<mgrwt>
<rscale>  4 0.19693103E+03</rscale>
<asrwt>0</asrwt>
<pdfrwt beam="2">  1       21 0.36872127E-01 0.19704876E+03</pdfrwt>
<pdfrwt beam="1">  1        2 0.74810680E-01 0.19704876E+03</pdfrwt>
<totfact> 0.56955977E+03</totfact>
</mgrwt>
</event>
<event>
13      2 +1.4674046e+01 2.46373200e+02 7.54677100e-03 1.11585200e-01
       21 -1    0    0  503  502 +0.0000000000e+00 +0.0000000000e+00 +9.5596485489e+01 9.5596485489e+01 0.0000000000e+00 0.0000e+00 1.0000e+00
       21 -1    0    0  501  503 -0.0000000000e+00 -0.0000000000e+00 -6.4828598462e+02 6.4828598462e+02 0.0000000000e+00 0.0000e+00 1.0000e+00
        6  2    1    2  501    0 -1.1936651631e+02 +1.2733968043e+02 -2.1524906583e+02 3.2607173999e+02 1.7183381464e+02 0.0000e+00 0.0000e+00
       24  2    3    3    0    0 +8.5889728044e+00 +3.8739631577e+01 -2.9934974480e+01 8.4026334532e+01 6.7748008748e+01 0.0000e+00 0.0000e+00
       -6  2    1    2    0  502 +1.1936651631e+02 -1.2733968043e+02 -3.3744043331e+02 4.1781073012e+02 1.7388502163e+02 0.0000e+00 0.0000e+00
      -24  2    5    5    0    0 +8.1781695369e+01 -2.4828762259e+01 -2.3276077067e+02 2.6083876481e+02 8.0960309608e+01 0.0000e+00 0.0000e+00
        5  1    3    3  501    0 -1.2795548912e+02 +8.8600048851e+01 -1.8531409135e+02 2.4204540546e+02 4.7000000000e+00 0.0000e+00 -1.0000e+00
      -13  1    4    4    0    0 +1.7848343438e+01 +5.2479357791e+01 -3.6319457659e+01 6.6270275103e+01 0.0000000000e+00 0.0000e+00 1.0000e+00
       14  1    4    4    0    0 -9.2593706340e+00 -1.3739726214e+01 +6.3844831790e+00 1.7756059429e+01 0.0000000000e+00 0.0000e+00 -1.0000e+00
       -5  1    5    5    0  504 +3.2172507131e+00 -3.5210470073e+01 -5.8181719389e+01 6.8244636243e+01 4.7000000000e+00 0.0000e+00 1.0000e+00
       13  1    6    6    0    0 +7.9349299933e+01 -2.2431758167e+01 -1.0726718213e+02 1.3529871964e+02 0.0000000000e+00 0.0000e+00 -1.0000e+00
      -14  1    6    6    0    0 +2.4323954363e+00 -2.3970040922e+00 -1.2549358854e+02 1.2554004517e+02 0.0000000000e+00 0.0000e+00 1.0000e+00
       21  1    5    5  504  502 +3.4367570230e+01 -6.7300448095e+01 -4.6497943249e+01 8.8727329069e+01 0.0000000000e+00 0.0000e+00 1.0000e+00
<mgrwt>
<rscale>  3 0.24601157E+03</rscale>
<asrwt>0</asrwt>
<pdfrwt beam="1">  1       21 0.14707151E-01 0.24637321E+03</pdfrwt>
<pdfrwt beam="2">  1       21 0.99736306E-01 0.24637321E+03</pdfrwt>
<totfact> 0.32672694E+04</totfact>
</mgrwt>
</event>
<event>
12      2 +1.4674046e+01 1.80869100e+02 7.54677100e-03 1.16712100e-01
       21 -1    0    0  504  502 +0.0000000000e+00 +0.0000000000e+00 +2.9615537807e+02 2.9615537807e+02 0.0000000000e+00 0.0000e+00 -1.0000e+00
       21 -1    0    0  502  503 -0.0000000000e+00 -0.0000000000e+00 -6.9466862778e+02 6.9466862778e+02 0.0000000000e+00 0.0000e+00 -1.0000e+00
       -6  2    1    2    0  503 +6.2508339082e+01 -2.2765732779e+01 -2.2831273846e+02 2.9368774330e+02 1.7233749731e+02 0.0000e+00 0.0000e+00
        6  2    1    2  501    0 -4.3929667836e+01 +1.0073823274e+01 -4.1470186523e+02 4.5160181754e+02 1.7301811162e+02 0.0000e+00 0.0000e+00
       24  2    4    4    0    0 -5.2327806779e+01 +6.8127046895e+01 -3.0993516243e+02 3.3144002026e+02 8.0082384065e+01 0.0000e+00 0.0000e+00
        5  1    4    4  501    0 +8.3981389435e+00 -5.8053223621e+01 -1.0476670280e+02 1.2016179728e+02 4.7000000000e+00 0.0000e+00 -1.0000e+00
      -13  1    5    5    0    0 -1.4790404704e+01 +7.1961151650e+01 -1.4882173639e+02 1.6596708300e+02 0.0000000000e+00 0.0000e+00 1.0000e+00
       14  1    5    5    0    0 -3.7537402075e+01 -3.8341047546e+00 -1.6111342605e+02 1.6547293726e+02 0.0000000000e+00 0.0000e+00 -1.0000e+00
       -5  1    3    3    0  503 -2.7743020417e+01 -6.4817219669e+01 -1.2024244973e+02 1.3946785961e+02 4.7000000000e+00 0.0000e+00 1.0000e+00
       13  1    3    3    0    0 +2.9086644585e+01 +3.8619873585e+01 -4.1096370477e+01 6.3454229136e+01 0.0000000000e+00 0.0000e+00 -1.0000e+00
      -14  1    3    3    0    0 +6.1164714914e+01 +3.4316133055e+00 -6.6973918251e+01 9.0765654552e+01 0.0000000000e+00 0.0000e+00 1.0000e+00
       21  1    1    2  504  501 -1.8578671246e+01 +1.2691909505e+01 +2.4450135397e+02 2.4553444501e+02 0.0000000000e+00 0.0000e+00 -1.0000e+00
<mgrwt>
<rscale>  3 0.18070618E+03</rscale>
<asrwt>0</asrwt>
<pdfrwt beam="1">  1       21 0.45562366E-01 0.18086914E+03</pdfrwt>
<pdfrwt beam="2">  1       21 0.10687210E+00 0.18086914E+03</pdfrwt>
<totfact> 0.32677104E+03</totfact>
</mgrwt>
</event>
<event>
12      2 +1.4674046e+01 6.62202600e+02 7.54677100e-03 1.02085700e-01
       21 -1    0    0  503  502 +0.0000000000e+00 +0.0000000000e+00 +7.3556368808e+02 7.3556368808e+02 0.0000000000e+00 0.0000e+00 -1.0000e+00
       21 -1    0    0  501  503 -0.0000000000e+00 -0.0000000000e+00 -3.5815357330e+02 3.5815357330e+02 0.0000000000e+00 0.0000e+00 -1.0000e+00
       24  2    1    2    0    0 -2.9909958152e+02 -1.4048859608e+02 +4.4717527363e+01 3.4297033368e+02 8.0195930311e+01 0.0000e+00 0.0000e+00
       -6  2    1    2    0  504 -7.6107422210e+00 +2.7708618642e+01 -7.0106713454e+01 1.8648208516e+02 1.7039637869e+02 0.0000e+00 0.0000e+00
      -24  2    4    4    0    0 -5.3943921726e+01 -2.0360583128e+01 -6.4352005499e+01 1.1930606008e+02 8.2269406972e+01 0.0000e+00 0.0000e+00
        5  1    1    2  501    0 +2.9406127237e+02 +7.0985091616e+01 +2.1424660405e+02 3.7072174536e+02 4.7000000000e+00 0.0000e+00 -1.0000e+00
      -13  1    3    3    0    0 -1.7783166506e+02 -5.2743507250e+01 +5.3439576908e+01 1.9303307239e+02 0.0000000000e+00 0.0000e+00 1.0000e+00
       14  1    3    3    0    0 -1.2126791646e+02 -8.7745088830e+01 -8.7220495451e+00 1.4993726130e+02 0.0000000000e+00 0.0000e+00 -1.0000e+00
       -5  1    4    4    0  504 +4.6333179505e+01 +4.8069201771e+01 -5.7547079542e+00 6.7176025080e+01 4.7000000000e+00 0.0000e+00 1.0000e+00
       13  1    5    5    0    0 -7.0542594998e+00 +1.0720274921e+01 -6.1665462629e+01 6.2986634715e+01 0.0000000000e+00 0.0000e+00 -1.0000e+00
      -14  1    5    5    0    0 -4.6889662227e+01 -3.1080858050e+01 -2.6865428700e+00 5.6319425365e+01 0.0000000000e+00 0.0000e+00 1.0000e+00
       21  1    1    2  504  502 +1.2649051371e+01 +4.1794885821e+01 +1.8855269682e+02 1.9354309717e+02 0.0000000000e+00 0.0000e+00 -1.0000e+00
<mgrwt>
<rscale>  3 0.47378442E+03</rscale>
<asrwt>0</asrwt>
<pdfrwt beam="1">  1       21 0.11316364E+00 0.66220257E+03</pdfrwt>
<pdfrwt beam="2">  1       21 0.55100550E-01 0.66220257E+03</pdfrwt>
<totfact> 0.15193003E+03</totfact>
</mgrwt>
</event>
<event>
12      1 +1.4674046e+01 2.48199700e+02 7.54677100e-03 1.11477100e-01
       21 -1    0    0  501  502 +0.0000000000e+00 +0.0000000000e+00 +4.3340817824e+02 4.3340817824e+02 0.0000000000e+00 0.0000e+00 1.0000e+00
       21 -1    0    0  502  503 -0.0000000000e+00 -0.0000000000e+00 -1.6350987197e+02 1.6350987197e+02 0.0000000000e+00 0.0000e+00 -1.0000e+00
       -6  2    1    2    0  503 -1.5919636813e+02 +8.0530163259e+01 +2.4525044665e+02 3.4749753753e+02 1.6964128680e+02 0.0000e+00 0.0000e+00
      -24  2    3    3    0    0 -1.1400416629e+02 +1.1381265309e+01 +2.2050058077e+02 2.6113463429e+02 8.0276447200e+01 0.0000e+00 0.0000e+00
        6  2    1    2  501    0 +1.5919636813e+02 -8.0530163259e+01 +2.4647859623e+01 2.4942051269e+02 1.7255284509e+02 0.0000e+00 0.0000e+00
       24  2    5    5    0    0 +5.6536601541e+01 +2.4175301348e+01 +5.1337655647e+00 1.0141662132e+02 8.0486912118e+01 0.0000e+00 0.0000e+00
        5  1    5    5  501    0 +1.0265976659e+02 -1.0470546461e+02 +1.9514094059e+01 1.4800389137e+02 4.7000000000e+00 0.0000e+00 -1.0000e+00
      -13  1    6    6    0    0 +2.0930865613e+01 +3.5406418387e+00 +4.1425066704e+01 4.6547539477e+01 0.0000000000e+00 0.0000e+00 1.0000e+00
       14  1    6    6    0    0 +3.5605735928e+01 +2.0634659510e+01 -3.6291301139e+01 5.4869081844e+01 0.0000000000e+00 0.0000e+00 -1.0000e+00
       -5  1    3    3    0  503 -4.5192201839e+01 +6.9148897950e+01 +2.4749865881e+01 8.6362903238e+01 4.7000000000e+00 0.0000e+00 1.0000e+00
       13  1    4    4    0    0 -2.4628205620e+01 +3.6582212371e+01 +4.7692960399e+01 6.4957103119e+01 0.0000000000e+00 0.0000e+00 -1.0000e+00
      -14  1    4    4    0    0 -8.9375960668e+01 -2.5200947062e+01 +1.7280762037e+02 1.9617753117e+02 0.0000000000e+00 0.0000e+00 1.0000e+00
<mgrwt>
<rscale>  2 0.24769431E+03</rscale>
<asrwt>0</asrwt>
<pdfrwt beam="1">  1       21 0.66678181E-01 0.24819967E+03</pdfrwt>
<pdfrwt beam="2">  1       21 0.25155365E-01 0.24819967E+03</pdfrwt>
<totfact> 0.30004163E+04</totfact>
</mgrwt>
</event>
<event>
12      1 +1.4674046e+01 1.86253300e+02 7.54677100e-03 1.16274700e-01
       21 -1    0    0  501  502 +0.0000000000e+00 +0.0000000000e+00 +1.3273886522e+02 1.3273886522e+02 0.0000000000e+00 0.0000e+00 -1.0000e+00
       21 -1    0    0  502  503 -0.0000000000e+00 -0.0000000000e+00 -2.5620490090e+02 2.5620490090e+02 0.0000000000e+00 0.0000e+00 -1.0000e+00
        6  2    1    2  501    0 -4.1495048120e+01 -3.0464621244e+01 -6.1014854120e+01 1.9599265114e+02 1.7899825338e+02 0.0000e+00 0.0000e+00
       24  2    3    3    0    0 +6.7302262154e+00 +5.6977406226e+00 -9.6394604166e+01 1.2594116855e+02 8.0569833250e+01 0.0000e+00 0.0000e+00
       -6  2    1    2    0  503 +4.1495048120e+01 +3.0464621244e+01 -6.2451181562e+01 1.9295111498e+02 1.7515721660e+02 0.0000e+00 0.0000e+00
      -24  2    5    5    0    0 -2.7248102121e+01 -2.5593768654e-02 +1.3223399511e+01 8.6161573647e+01 8.0662870978e+01 0.0000e+00 0.0000e+00
        5  1    3    3  501    0 -4.8225274335e+01 -3.6162361867e+01 +3.5379750047e+01 7.0051482596e+01 4.7000000000e+00 0.0000e+00 -1.0000e+00
      -13  1    4    4    0    0 +1.2297287261e+01 -1.0457852488e+01 +9.4638446532e+00 1.8712410541e+01 0.0000000000e+00 0.0000e+00 1.0000e+00
       14  1    4    4    0    0 -5.5670610454e+00 +1.6155593111e+01 -1.0585844882e+02 1.0722875801e+02 0.0000000000e+00 0.0000e+00 -1.0000e+00
       -5  1    5    5    0  503 +6.8743150241e+01 +3.0490215013e+01 -7.5674581073e+01 1.0678954133e+02 4.7000000000e+00 0.0000e+00 1.0000e+00
       13  1    6    6    0    0 +8.8013423802e+00 +1.8578571018e+01 +3.4645598778e+01 4.0285784632e+01 0.0000000000e+00 0.0000e+00 -1.0000e+00
      -14  1    6    6    0    0 -3.6049444501e+01 -1.8604164787e+01 -2.1422199267e+01 4.5875789014e+01 0.0000000000e+00 0.0000e+00 1.0000e+00
<mgrwt>
<rscale>  2 0.18532433E+03</rscale>
<asrwt>0</asrwt>
<pdfrwt beam="1">  1       21 0.20421364E-01 0.18625334E+03</pdfrwt>
<pdfrwt beam="2">  1       21 0.39416139E-01 0.18625334E+03</pdfrwt>
<totfact> 0.13804762E+05</totfact>
</mgrwt>
</event>
<event>
14      3 +1.4674046e+01 1.92059900e+02 7.54677100e-03 1.15694200e-01
        1 -1    0    0  501    0 -0.0000000000e+00 +0.0000000000e+00 +2.7347059154e+02 2.7347059154e+02 0.0000000000e+00 0.0000e+00 1.0000e+00
       21 -1    0    0  502  503 +0.0000000000e+00 -0.0000000000e+00 -2.3639045031e+02 2.3639045031e+02 0.0000000000e+00 0.0000e+00 -1.0000e+00
        6  2    1    2  501    0 -5.7438751170e+01 +8.2188416826e+01 +3.2822137878e+01 2.0321311385e+02 1.7367823960e+02 0.0000e+00 0.0000e+00
       24  2    3    3    0    0 +9.3193404217e+00 +8.8916410604e+01 +5.5133583807e+01 1.3234845896e+02 8.0519714015e+01 0.0000e+00 0.0000e+00
       -6  2    1    2    0  504 +6.9907683568e+01 -2.3436631487e+01 +2.9766338873e+01 1.8955005553e+02 1.7206634972e+02 0.0000e+00 0.0000e+00
      -24  2    5    5    0    0 +7.1160510341e+00 -5.8442314150e+01 -2.3954242395e+01 9.9682498611e+01 7.6789664246e+01 0.0000e+00 0.0000e+00
        5  1    3    3  501    0 -6.6758091592e+01 -6.7279937775e+00 -2.2311445928e+01 7.0864654890e+01 4.7000000000e+00 0.0000e+00 -1.0000e+00
      -13  1    4    4    0    0 -3.3663564974e+01 +2.7527706582e+01 +9.1920195610e+00 4.4446636094e+01 0.0000000000e+00 0.0000e+00 1.0000e+00
       14  1    4    4    0    0 +4.2982905396e+01 +6.1388704022e+01 +4.5941564246e+01 8.7901822866e+01 0.0000000000e+00 0.0000e+00 -1.0000e+00
       -5  1    5    5    0  504 +6.2791632533e+01 +3.5005682664e+01 +5.3720581268e+01 8.9867556920e+01 4.7000000000e+00 0.0000e+00 1.0000e+00
       13  1    6    6    0    0 -1.5853331753e+01 +7.5562021633e+00 -2.4076554554e+01 2.9801087195e+01 0.0000000000e+00 0.0000e+00 -1.0000e+00
      -14  1    6    6    0    0 +2.2969382787e+01 -6.5998516314e+01 +1.2231215904e-01 6.9881411416e+01 0.0000000000e+00 0.0000e+00 1.0000e+00
       21  1    1    2  504  503 -2.4808446223e+01 -1.9573133407e+01 -5.7111792510e+01 6.5271152885e+01 0.0000000000e+00 0.0000e+00 -1.0000e+00
        1  1    1    2  502    0 +1.2339513825e+01 -3.9178651933e+01 +3.1603456992e+01 5.1826719582e+01 0.0000000000e+00 0.0000e+00 1.0000e+00
<mgrwt>
<rscale>  4 0.19169475E+03</rscale>
<asrwt>0</asrwt>
<pdfrwt beam="2">  1       21 0.36367762E-01 0.19205989E+03</pdfrwt>
<pdfrwt beam="1">  1        1 0.42072399E-01 0.19205989E+03</pdfrwt>
<totfact> 0.78425735E+03</totfact>
</mgrwt>
</event>
<event>
12      1 +1.4674046e+01 1.73207900e+02 7.54677100e-03 1.17460100e-01
       21 -1    0    0  503  502 +0.0000000000e+00 +0.0000000000e+00 +1.0796563613e+02 1.0796563613e+02 0.0000000000e+00 0.0000e+00 1.0000e+00
       21 -1    0    0  501  503 -0.0000000000e+00 -0.0000000000e+00 -2.8937156171e+02 2.8937156171e+02 0.0000000000e+00 0.0000e+00 1.0000e+00
        6  2    1    2  501    0 -4.5558695342e+00 -1.0293107782e+01 -1.3086718370e+02 2.1690672937e+02 1.7261403611e+02 0.0000e+00 0.0000e+00
       24  2    3    3    0    0 -4.0096385859e+01 -6.3311019027e+01 -8.7766501444e+01 1.3974594902e+02 7.8803338774e+01 0.0000e+00 0.0000e+00
       -6  2    1    2    0  502 +4.5558695342e+00 +1.0293107782e+01 -5.0538741879e+01 1.8043046848e+02 1.7284179330e+02 0.0000e+00 0.0000e+00
      -24  2    5    5    0    0 +4.4342046529e+01 -4.3246861976e+01 -1.1060077292e+01 1.0277660058e+02 8.1266205503e+01 0.0000e+00 0.0000e+00
        5  1    3    3  501    0 +3.5540516325e+01 +5.3017911245e+01 -4.3100682257e+01 7.7160780351e+01 4.7000000000e+00 0.0000e+00 -1.0000e+00
      -13  1    4    4    0    0 +2.2552639861e+01 -1.3655291217e+01 -3.5560898438e+01 4.4268115395e+01 0.0000000000e+00 0.0000e+00 1.0000e+00
       14  1    4    4    0    0 -6.2649025720e+01 -4.9655727810e+01 -5.2205603006e+01 9.5477833622e+01 0.0000000000e+00 0.0000e+00 -1.0000e+00
       -5  1    5    5    0  502 -3.9786176994e+01 +5.3539969759e+01 -3.9478664586e+01 7.7653867895e+01 4.7000000000e+00 0.0000e+00 1.0000e+00
       13  1    6    6    0    0 -6.5381745950e+00 -4.4740738495e+01 +1.2168742121e+01 4.6824776486e+01 0.0000000000e+00 0.0000e+00 -1.0000e+00
      -14  1    6    6    0    0 +5.0880221124e+01 +1.4938765191e+00 -2.3228819413e+01 5.5951824099e+01 0.0000000000e+00 0.0000e+00 1.0000e+00
<mgrwt>
<rscale>  2 0.17315109E+03</rscale>
<asrwt>0</asrwt>
<pdfrwt beam="1">  1       21 0.16610098E-01 0.17320794E+03</pdfrwt>
<pdfrwt beam="2">  1       21 0.44518702E-01 0.17320794E+03</pdfrwt>
<totfact> 0.15870022E+05</totfact>
</mgrwt>
</event>
<event>
13      2 +1.4674046e+01 3.54823800e+02 7.54677100e-03 1.06077400e-01
       21 -1    0    0  503  502 +0.0000000000e+00 +0.0000000000e+00 +4.7776462820e+02 4.7776462820e+02 0.0000000000e+00 0.0000e+00 1.0000e+00
       21 -1    0    0  504  503 -0.0000000000e+00 -0.0000000000e+00 -8.1301413948e+02 8.1301413948e+02 0.0000000000e+00 0.0000e+00 -1.0000e+00
        6  2    1    2  504    0 -2.5670169416e+02 +1.7170302560e+02 -6.9854801641e+02 7.8295427688e+02 1.7225092069e+02 0.0000e+00 0.0000e+00
       24  2    3    3    0    0 -1.2112069352e+02 +2.9522592917e+01 -3.6528763409e+02 3.9440212931e+02 8.1093637855e+01 0.0000e+00 0.0000e+00
       -6  2    1    2    0  502 +2.5670169416e+02 -1.7170302560e+02 +3.6329850512e+02 5.0782449080e+02 1.7470609848e+02 0.0000e+00 0.0000e+00
      -24  2    5    5    0    0 +1.8080231773e+02 -9.4125516573e+01 +1.4092347826e+02 2.6033362668e+02 7.9781448274e+01 0.0000e+00 0.0000e+00
        5  1    3    3  501    0 -9.2635362362e+01 +1.1548615410e+02 -2.2990059989e+02 2.7348626653e+02 4.7000000000e+00 0.0000e+00 -1.0000e+00
      -13  1    4    4    0    0 -1.0378987382e+02 +3.7038111147e+01 -2.0268799386e+02 2.3070886944e+02 0.0000000000e+00 0.0000e+00 1.0000e+00
       14  1    4    4    0    0 -1.7330819700e+01 -7.5155182309e+00 -1.6259964023e+02 1.6369325987e+02 0.0000000000e+00 0.0000e+00 -1.0000e+00
       -5  1    5    5    0  502 +7.5899376429e+01 -7.7577509024e+01 +2.2237502686e+02 2.4749086412e+02 4.7000000000e+00 0.0000e+00 1.0000e+00
       13  1    6    6    0    0 +1.4477657960e+02 -5.5246539942e+01 +1.3758477341e+02 2.0722453535e+02 0.0000000000e+00 0.0000e+00 -1.0000e+00
      -14  1    6    6    0    0 +3.6025738129e+01 -3.8878976631e+01 +3.3387048452e+00 5.3109091328e+01 0.0000000000e+00 0.0000e+00 1.0000e+00
       21  1    3    3  504  501 -4.2945638280e+01 +2.6694278584e+01 -1.0335978243e+02 1.1506588104e+02 0.0000000000e+00 0.0000e+00 1.0000e+00
<mgrwt>
<rscale>  3 0.35452279E+03</rscale>
<asrwt>0</asrwt>
<pdfrwt beam="1">  1       21 0.73502252E-01 0.35482377E+03</pdfrwt>
<pdfrwt beam="2">  1       21 0.12507910E+00 0.35482377E+03</pdfrwt>
<totfact> 0.69850322E+02</totfact>
</mgrwt>
</event>
<event>
14      3 +1.4674046e+01 2.17745900e+02 7.54677100e-03 1.13570300e-01
       21 -1    0    0  504  502 +0.0000000000e+00 +0.0000000000e+00 +7.0190523685e+02 7.0190523685e+02 0.0000000000e+00 0.0000e+00 -1.0000e+00
       21 -1    0    0  501  503 -0.0000000000e+00 -0.0000000000e+00 -2.4370432829e+02 2.4370432829e+02 0.0000000000e+00 0.0000e+00 -1.0000e+00
        6  2    1    2  501    0 -1.0503016852e+02 +3.8584309259e+01 +1.0287875842e+02 2.3163125598e+02 1.7478247793e+02 0.0000e+00 0.0000e+00
       24  2    3    3    0    0 -4.6834571269e+00 -3.3762699871e+01 +5.7885339439e+01 9.9911667575e+01 7.3957921296e+01 0.0000e+00 0.0000e+00
       -6  2    1    2    0  502 +1.1832773612e+02 -9.3429456982e+01 +2.9412763756e+02 3.7348999777e+02 1.7393445517e+02 0.0000e+00 0.0000e+00
      -24  2    5    5    0    0 +5.6769493388e+01 -3.6008189365e+01 +2.6382819073e+02 2.8389777880e+02 8.0456631188e+01 0.0000e+00 0.0000e+00
        5  1    3    3  501    0 -1.0034671140e+02 +7.2347009130e+01 +4.4993418978e+01 1.3171958840e+02 4.7000000000e+00 0.0000e+00 -1.0000e+00
      -13  1    4    4    0    0 +5.5773772903e+00 -5.1489321922e+01 +1.7566457672e+01 5.4688553140e+01 0.0000000000e+00 0.0000e+00 1.0000e+00
       14  1    4    4    0    0 -1.0260834417e+01 +1.7726622050e+01 +4.0318881768e+01 4.5223114436e+01 0.0000000000e+00 0.0000e+00 -1.0000e+00
       -5  1    5    5    0  502 +6.1558242734e+01 -5.7421267616e+01 +3.0299446830e+01 8.9592218978e+01 4.7000000000e+00 0.0000e+00 1.0000e+00
       13  1    6    6    0    0 +2.0406216376e+01 -5.7370350860e+01 +1.8069468820e+02 1.9067863322e+02 0.0000000000e+00 0.0000e+00 -1.0000e+00
      -14  1    6    6    0    0 +3.6363277011e+01 +2.1362161495e+01 +8.3133502530e+01 9.3219145575e+01 0.0000000000e+00 0.0000e+00 1.0000e+00
       21  1    1    2  504  505 -2.3387301281e+01 -2.4057271287e+00 +1.9405096724e+02 1.9547002653e+02 0.0000000000e+00 0.0000e+00 -1.0000e+00
       21  1    1    2  505  503 +1.0089733682e+01 +5.7250874852e+01 -1.3285645466e+02 1.4501828485e+02 0.0000000000e+00 0.0000e+00 -1.0000e+00
<mgrwt>
<rscale>  4 0.21757571E+03</rscale>
<asrwt>0</asrwt>
<pdfrwt beam="1">  1       21 0.10798542E+00 0.21774593E+03</pdfrwt>
<pdfrwt beam="2">  1       21 0.37492974E-01 0.21774593E+03</pdfrwt>
<totfact> 0.45943313E+03</totfact>
</mgrwt>
</event>
<event>
12      1 +1.4674046e+01 1.74597000e+02 7.54677100e-03 1.17344400e-01
       21 -1    0    0  501  502 +0.0000000000e+00 +0.0000000000e+00 +4.9489408478e+02 4.9489408478e+02 0.0000000000e+00 0.0000e+00 1.0000e+00
       21 -1    0    0  502  503 -0.0000000000e+00 -0.0000000000e+00 -8.1099122090e+01 8.1099122090e+01 0.0000000000e+00 0.0000e+00 1.0000e+00
       -6  2    1    2    0  503 +6.4363357141e+00 +2.5033150791e+01 +3.5020694800e+02 3.9131703172e+02 1.7267318213e+02 0.0000e+00 0.0000e+00
      -24  2    3    3    0    0 +2.6842334582e+01 -5.7098802548e+01 +1.1614724647e+02 1.4238311191e+02 5.2933765371e+01 0.0000e+00 0.0000e+00
        6  2    1    2  501    0 -6.4363357141e+00 -2.5033150791e+01 +6.3588014685e+01 1.8467617515e+02 1.7144611107e+02 0.0000e+00 0.0000e+00
       24  2    5    5    0    0 -5.1890928379e+01 -8.9468085035e-02 -8.5396738287e+00 9.5722250271e+01 7.9982164983e+01 0.0000e+00 0.0000e+00
        5  1    5    5  501    0 +4.5454592665e+01 -2.4943682706e+01 +7.2127688514e+01 8.8953924880e+01 4.7000000000e+00 0.0000e+00 -1.0000e+00
      -13  1    6    6    0    0 -4.4203161313e+01 +3.5636062276e+01 +4.4157072286e+00 5.6950389594e+01 0.0000000000e+00 0.0000e+00 1.0000e+00
       14  1    6    6    0    0 -7.6877670665e+00 -3.5725530361e+01 -1.2955381057e+01 3.8771860677e+01 0.0000000000e+00 0.0000e+00 -1.0000e+00
       -5  1    3    3    0  503 -2.0405998868e+01 +8.2131953339e+01 +2.3405970153e+02 2.4893391980e+02 4.7000000000e+00 0.0000e+00 1.0000e+00
       13  1    4    4    0    0 -4.3383968926e+00 -4.1431855581e+01 +8.8669392718e+01 9.7967757703e+01 0.0000000000e+00 0.0000e+00 -1.0000e+00
      -14  1    4    4    0    0 +3.1180731474e+01 -1.5666946967e+01 +2.7477853756e+01 4.4415354210e+01 0.0000000000e+00 0.0000e+00 1.0000e+00
<mgrwt>
<rscale>  2 0.17429284E+03</rscale>
<asrwt>0</asrwt>
<pdfrwt beam="1">  1       21 0.76137549E-01 0.17459700E+03</pdfrwt>
<pdfrwt beam="2">  1       21 0.12476788E-01 0.17459700E+03</pdfrwt>
<totfact> 0.84765822E+04</totfact>
</mgrwt>
</event>
<event>
12      1 +1.4674046e+01 2.03499900e+02 7.54677100e-03 1.14713600e-01
       21 -1    0    0  503  502 +0.0000000000e+00 +0.0000000000e+00 +8.6216180256e+01 8.6216180256e+01 0.0000000000e+00 0.0000e+00 -1.0000e+00
       21 -1    0    0  501  503 -0.0000000000e+00 -0.0000000000e+00 -5.1798233128e+02 5.1798233128e+02 0.0000000000e+00 0.0000e+00 -1.0000e+00
        6  2    1    2  501    0 -1.0542711556e+02 -1.1242092034e+00 -3.0189667655e+02 3.6407938162e+02 1.7405761193e+02 0.0000e+00 0.0000e+00
       24  2    3    3    0    0 -1.1055308200e+02 +4.3331498243e+01 -2.7911872130e+02 3.1364615149e+02 7.9793765942e+01 0.0000e+00 0.0000e+00
       -6  2    1    2    0  502 +1.0542711556e+02 +1.1242092034e+00 -1.2986947448e+02 2.4011912991e+02 1.7226426097e+02 0.0000e+00 0.0000e+00
      -24  2    5    5    0    0 +2.3868585549e+01 +3.3848583583e+01 -1.3053182060e+02 1.5211227110e+02 6.6212920524e+01 0.0000e+00 0.0000e+00
        5  1    3    3  501    0 +5.1259664444e+00 -4.4455707446e+01 -2.2777955253e+01 5.0433230137e+01 4.7000000000e+00 0.0000e+00 -1.0000e+00
      -13  1    4    4    0    0 -2.9654640771e+01 +4.1370033255e+01 -5.3001455509e+01 7.3484907681e+01 0.0000000000e+00 0.0000e+00 1.0000e+00
       14  1    4    4    0    0 -8.0898441231e+01 +1.9614649876e+00 -2.2611726579e+02 2.4016124380e+02 0.0000000000e+00 0.0000e+00 -1.0000e+00
       -5  1    5    5    0  502 +8.1558530008e+01 -3.2724374379e+01 +6.6234612281e-01 8.8006858812e+01 4.7000000000e+00 0.0000e+00 1.0000e+00
       13  1    6    6    0    0 +1.5359426862e+01 +3.3183495038e+01 -2.0837324714e+01 4.2086226223e+01 0.0000000000e+00 0.0000e+00 -1.0000e+00
      -14  1    6    6    0    0 +8.5091586873e+00 +6.6508854457e-01 -1.0969449588e+02 1.1002604488e+02 0.0000000000e+00 0.0000e+00 1.0000e+00
<mgrwt>
<rscale>  2 0.20311584E+03</rscale>
<asrwt>0</asrwt>
<pdfrwt beam="1">  1       21 0.13264028E-01 0.20349986E+03</pdfrwt>
<pdfrwt beam="2">  1       21 0.79689590E-01 0.20349986E+03</pdfrwt>
<totfact> 0.67676415E+04</totfact>
</mgrwt>
</event>
<event>
12      1 +1.4674046e+01 2.53671900e+02 7.54677100e-03 1.11162800e-01
       21 -1    0    0  503  502 +0.0000000000e+00 +0.0000000000e+00 +1.2720830934e+02 1.2720830934e+02 0.0000000000e+00 0.0000e+00 -1.0000e+00
       21 -1    0    0  501  503 -0.0000000000e+00 -0.0000000000e+00 -5.1693184505e+02 5.1693184505e+02 0.0000000000e+00 0.0000e+00 -1.0000e+00
        6  2    1    2  501    0 -1.7335748005e+02 -5.8988189135e+01 -2.5804291792e+02 3.6185021435e+02 1.7554773650e+02 0.0000e+00 0.0000e+00
       24  2    3    3    0    0 -9.6302476600e+01 +3.1360602161e+01 -1.6407488308e+02 2.1034952387e+02 8.4075564616e+01 0.0000e+00 0.0000e+00
       -6  2    1    2    0  502 +1.7335748005e+02 +5.8988189135e+01 -1.3168061779e+02 2.8228994005e+02 1.6975100236e+02 0.0000e+00 0.0000e+00
      -24  2    5    5    0    0 +5.1796333108e+01 +9.0614999059e+01 -4.3612630528e+01 1.2881216337e+02 6.1616342902e+01 0.0000e+00 0.0000e+00
        5  1    3    3  501    0 -7.7055003450e+01 -9.0348791296e+01 -9.3968034832e+01 1.5150069048e+02 4.7000000000e+00 0.0000e+00 -1.0000e+00
      -13  1    4    4    0    0 -7.7518097479e+01 +4.9824908125e+01 -7.9287833966e+01 1.2156536316e+02 0.0000000000e+00 0.0000e+00 1.0000e+00
       14  1    4    4    0    0 -1.8784379122e+01 -1.8464305964e+01 -8.4787049118e+01 8.8784160704e+01 0.0000000000e+00 0.0000e+00 -1.0000e+00
       -5  1    5    5    0  502 +1.2156114694e+02 -3.1626809924e+01 -8.8067987266e+01 1.5347777668e+02 4.7000000000e+00 0.0000e+00 1.0000e+00
       13  1    6    6    0    0 -7.7735620439e+00 +4.6018592241e+01 -1.4029563160e+01 4.8733640754e+01 0.0000000000e+00 0.0000e+00 -1.0000e+00
      -14  1    6    6    0    0 +5.9569895152e+01 +4.4596406819e+01 -2.9583067368e+01 8.0078522616e+01 0.0000000000e+00 0.0000e+00 1.0000e+00
<mgrwt>
<rscale>  2 0.25267189E+03</rscale>
<asrwt>0</asrwt>
<pdfrwt beam="1">  1       21 0.19570509E-01 0.25367189E+03</pdfrwt>
<pdfrwt beam="2">  1       21 0.79527977E-01 0.25367189E+03</pdfrwt>
<totfact> 0.32504735E+04</totfact>
</mgrwt>
</event>
<event>
13      2 +1.4674046e+01 1.75394500e+02 7.54677100e-03 1.17275400e-01
       21 -1    0    0  503  502 +0.0000000000e+00 +0.0000000000e+00 +1.2566940817e+02 1.2566940817e+02 0.0000000000e+00 0.0000e+00 -1.0000e+00
       21 -1    0    0  501  503 -0.0000000000e+00 -0.0000000000e+00 -4.7882144782e+02 4.7882144782e+02 0.0000000000e+00 0.0000e+00 -1.0000e+00
        6  2    1    2  501    0 +1.6113135863e+01 -1.7452649867e+01 -3.2654287308e+02 3.7021863426e+02 1.7282176095e+02 0.0000e+00 0.0000e+00
       24  2    3    3    0    0 +3.7261109373e+01 -6.8446605236e+01 -1.8157240381e+02 2.1502151049e+02 8.4807924782e+01 0.0000e+00 0.0000e+00
       -6  2    1    2    0  504 -1.2421508703e+01 +5.0573220023e+01 -5.8441083093e+01 1.8818674475e+02 1.7113429301e+02 0.0000e+00 0.0000e+00
      -24  2    5    5    0    0 -4.7007607719e+01 +1.6011544075e+01 +3.7060554892e+01 8.0793260089e+01 5.1845746400e+01 0.0000e+00 0.0000e+00
        5  1    3    3  501    0 -2.1147973509e+01 +5.0993955370e+01 -1.4497046927e+02 1.5519712377e+02 4.7000000000e+00 0.0000e+00 -1.0000e+00
      -13  1    4    4    0    0 -2.2359854822e+01 -1.4974388906e+01 -1.6551437043e+01 3.1593440758e+01 0.0000000000e+00 0.0000e+00 1.0000e+00
       14  1    4    4    0    0 +5.9620964195e+01 -5.3472216331e+01 -1.6502096677e+02 1.8342806973e+02 0.0000000000e+00 0.0000e+00 -1.0000e+00
       -5  1    5    5    0  504 +3.4586099016e+01 +3.4561675948e+01 -9.5501637985e+01 1.0739348466e+02 4.7000000000e+00 0.0000e+00 1.0000e+00
       13  1    6    6    0    0 -2.9854585822e+01 -1.7051208528e+01 +2.0515314188e+01 4.0036459922e+01 0.0000000000e+00 0.0000e+00 -1.0000e+00
      -14  1    6    6    0    0 -1.7153021897e+01 +3.3062752603e+01 +1.6545240704e+01 4.0756800167e+01 0.0000000000e+00 0.0000e+00 1.0000e+00
       21  1    1    2  504  502 -3.6916271606e+00 -3.3120570157e+01 +3.1831916524e+01 4.6085476977e+01 0.0000000000e+00 0.0000e+00 -1.0000e+00
<mgrwt>
<rscale>  3 0.17497738E+03</rscale>
<asrwt>0</asrwt>
<pdfrwt beam="1">  1       21 0.19333755E-01 0.17539449E+03</pdfrwt>
<pdfrwt beam="2">  1       21 0.73664837E-01 0.17539449E+03</pdfrwt>
<totfact> 0.41051792E+04</totfact>
</mgrwt>
</event>
<event>
14      3 +1.4674046e+01 3.42507600e+02 7.54677100e-03 1.08038300e-01
       21 -1    0    0  503  502 +0.0000000000e+00 +0.0000000000e+00 +2.3850907067e+03 2.3850907067e+03 0.0000000000e+00 0.0000e+00 -1.0000e+00
       21 -1    0    0  501  503 -0.0000000000e+00 -0.0000000000e+00 -1.4527288845e+03 1.4527288845e+03 0.0000000000e+00 0.0000e+00 -1.0000e+00
        6  2    1    2  501    0 +2.5463485809e+01 -1.5139644699e+02 -1.0615473044e+03 1.0863242895e+03 1.7218742468e+02 0.0000e+00 0.0000e+00
       24  2    3    3    0    0 +5.3987613991e-02 -4.7071322692e+00 -3.4038530820e+02 3.4994116068e+02 8.1083277513e+01 0.0000e+00 0.0000e+00
       -6  2    1    2    0  504 +2.1722255061e+02 +2.9849516945e+02 -2.0920330589e+02 4.5826534465e+02 1.7307830665e+02 0.0000e+00 0.0000e+00
      -24  2    5    5    0    0 +5.3141030923e+01 +7.0699574987e+01 -9.6265048598e+01 1.5562576046e+02 8.4439437853e+01 0.0000e+00 0.0000e+00
        5  1    3    3  501    0 +2.5409498195e+01 -1.4668931472e+02 -7.2116199620e+02 7.3638312882e+02 4.7000000000e+00 0.0000e+00 -1.0000e+00
      -13  1    4    4    0    0 +3.1869422799e+01 -2.5132208518e+01 -1.3009099842e+02 1.3627529448e+02 0.0000000000e+00 0.0000e+00 1.0000e+00
       14  1    4    4    0    0 -3.1815435185e+01 +2.0425076249e+01 -2.1029430978e+02 2.1366586620e+02 0.0000000000e+00 0.0000e+00 -1.0000e+00
       -5  1    5    5    0  504 +1.6408151968e+02 +2.2779559447e+02 -1.1293825729e+02 3.0263958419e+02 4.7000000000e+00 0.0000e+00 1.0000e+00
       13  1    6    6    0    0 +7.3922461361e+01 +5.2330084777e+01 -8.8940671046e+01 1.2693861128e+02 0.0000000000e+00 0.0000e+00 -1.0000e+00
      -14  1    6    6    0    0 -2.0781430437e+01 +1.8369490210e+01 -7.3243775518e+00 2.8687149181e+01 0.0000000000e+00 0.0000e+00 1.0000e+00
       21  1    1    2  504  505 -6.3431438920e+01 +2.1652389581e+02 +6.4856026732e+02 6.8668520098e+02 0.0000000000e+00 0.0000e+00 -1.0000e+00
       21  1    1    2  505  502 -1.7925459750e+02 -3.6362261827e+02 +1.5545521651e+03 1.6065447561e+03 0.0000000000e+00 0.0000e+00 -1.0000e+00
<mgrwt>
<rscale>  4 0.30992307E+03</rscale>
<asrwt>0</asrwt>
<pdfrwt beam="1">  1       21 0.36693703E+00 0.34250758E+03</pdfrwt>
<pdfrwt beam="2">  1       21 0.22349675E+00 0.34250758E+03</pdfrwt>
<totfact> 0.10085594E+00</totfact>
</mgrwt>
</event>
<event>
12      1 +1.4674046e+01 2.12536600e+02 7.54677100e-03 1.13957300e-01
       21 -1    0    0  503  502 +0.0000000000e+00 +0.0000000000e+00 +7.2013545028e+01 7.2013545028e+01 0.0000000000e+00 0.0000e+00 1.0000e+00
       21 -1    0    0  501  503 -0.0000000000e+00 -0.0000000000e+00 -6.4117959990e+02 6.4117959990e+02 0.0000000000e+00 0.0000e+00 1.0000e+00
        6  2    1    2  501    0 -2.5099509804e+01 +1.2069362066e+02 -3.3711992029e+02 3.9852434330e+02 1.7313253907e+02 0.0000e+00 0.0000e+00
       24  2    3    3    0    0 +1.4834519708e+01 +6.7873197134e+01 -8.1224817882e+01 1.3415884387e+02 8.1081998514e+01 0.0000e+00 0.0000e+00
       -6  2    1    2    0  502 +2.5099509804e+01 -1.2069362066e+02 -2.3204613459e+02 3.1466880163e+02 1.7313032861e+02 0.0000e+00 0.0000e+00
      -24  2    5    5    0    0 +3.1956296726e+01 -4.4237828983e+01 -2.1573951259e+02 2.3605264853e+02 7.8734523389e+01 0.0000e+00 0.0000e+00
        5  1    3    3  501    0 -3.9934029512e+01 +5.2820423523e+01 -2.5589510241e+02 2.6436549943e+02 4.7000000000e+00 0.0000e+00 -1.0000e+00
      -13  1    4    4    0    0 -3.8954394385e+00 +3.7741883280e+01 -8.9948710811e+01 9.7623740855e+01 0.0000000000e+00 0.0000e+00 1.0000e+00
       14  1    4    4    0    0 +1.8729959146e+01 +3.0131313854e+01 +8.7238929281e+00 3.6535103011e+01 0.0000000000e+00 0.0000e+00 -1.0000e+00
       -5  1    5    5    0  502 -6.8567869216e+00 -7.6455791674e+01 -1.6306621997e+01 7.8616153101e+01 4.7000000000e+00 0.0000e+00 1.0000e+00
       13  1    6    6    0    0 -2.0793493848e+01 -3.7024226629e+01 -1.0093792459e+02 1.0950628915e+02 0.0000000000e+00 0.0000e+00 -1.0000e+00
      -14  1    6    6    0    0 +5.2749790574e+01 -7.2136023538e+00 -1.1480158800e+02 1.2654635938e+02 0.0000000000e+00 0.0000e+00 1.0000e+00
<mgrwt>
<rscale>  2 0.21253616E+03</rscale>
<asrwt>0</asrwt>
<pdfrwt beam="1">  1       21 0.11079007E-01 0.21253661E+03</pdfrwt>
<pdfrwt beam="2">  1       21 0.98643013E-01 0.21253661E+03</pdfrwt>
<totfact> 0.56819352E+04</totfact>
</mgrwt>
</event>
<event>
13      2 +1.4674046e+01 2.24811200e+02 7.54677100e-03 1.13036300e-01
       21 -1    0    0  502  503 +0.0000000000e+00 +0.0000000000e+00 +6.8287105875e+01 6.8287105875e+01 0.0000000000e+00 0.0000e+00 1.0000e+00
        2 -1    0    0  501    0 -0.0000000000e+00 -0.0000000000e+00 -3.3161563058e+03 3.3161563058e+03 0.0000000000e+00 0.0000e+00 1.0000e+00
        6  2    1    2  501    0 +1.8699053475e+02 +5.0534722422e+01 -1.0206882264e+03 1.0532260421e+03 1.7309368009e+02 0.0000e+00 0.0000e+00
       24  2    3    3    0    0 +1.9621280199e+02 +8.1397353831e+01 -9.1812845885e+02 9.4562423849e+02 7.8232605670e+01 0.0000e+00 0.0000e+00
       -6  2    1    2    0  503 -1.2681218424e+02 -3.7777411506e+01 -1.7842110725e+02 2.8153418120e+02 1.7297092467e+02 0.0000e+00 0.0000e+00
      -24  2    5    5    0    0 -1.1769245294e+02 +3.0709236973e+01 -1.2895282464e+02 1.9642958965e+02 8.4623767298e+01 0.0000e+00 0.0000e+00
        5  1    3    3  501    0 -9.2222672427e+00 -3.0862631408e+01 -1.0255976752e+02 1.0760180363e+02 4.7000000000e+00 0.0000e+00 -1.0000e+00
      -13  1    4    4    0    0 +1.0884631021e+02 +1.5409912445e+01 -3.4362996659e+02 3.6078600110e+02 0.0000000000e+00 0.0000e+00 1.0000e+00
       14  1    4    4    0    0 +8.7366491777e+01 +6.5987441385e+01 -5.7449849226e+02 5.8483823739e+02 0.0000000000e+00 0.0000e+00 -1.0000e+00
       -5  1    5    5    0  503 -9.1197312985e+00 -6.8486648479e+01 -4.9468282613e+01 8.5104591554e+01 4.7000000000e+00 0.0000e+00 1.0000e+00
       13  1    6    6    0    0 -2.5229637715e+01 +2.1785564309e+01 -8.9500381687e+01 9.5506354520e+01 0.0000000000e+00 0.0000e+00 -1.0000e+00
      -14  1    6    6    0    0 -9.2462815230e+01 +8.9236726640e+00 -3.9452442951e+01 1.0092323513e+02 0.0000000000e+00 0.0000e+00 1.0000e+00
        2  1    1    2  502    0 -6.0178350504e+01 -1.2757310916e+01 -2.0487598663e+03 2.0496831884e+03 0.0000000000e+00 0.0000e+00 1.0000e+00
<mgrwt>
<rscale>  3 0.22478756E+03</rscale>
<asrwt>0</asrwt>
<pdfrwt beam="1">  1       21 0.10505709E-01 0.22481119E+03</pdfrwt>
<pdfrwt beam="2">  1        2 0.51017787E+00 0.22481119E+03</pdfrwt>
<totfact> 0.12836292E+03</totfact>
</mgrwt>
</event>
<event>
14      3 +1.4674046e+01 1.73284300e+02 7.54677100e-03 1.17467000e-01
       21 -1    0    0  504  503 +0.0000000000e+00 +0.0000000000e+00 +7.7906086473e+02 7.7906086473e+02 0.0000000000e+00 0.0000e+00 1.0000e+00
        2 -1    0    0  501    0 -0.0000000000e+00 -0.0000000000e+00 -4.4269087746e+02 4.4269087746e+02 0.0000000000e+00 0.0000e+00 1.0000e+00
        6  2    1    2  501    0 -4.0044558402e+01 +1.3270123229e+01 +2.4466024879e+02 3.0195036870e+02 1.7185960837e+02 0.0000e+00 0.0000e+00
       24  2    3    3    0    0 +3.4487557137e+01 +2.1243451391e+01 +1.8607455904e+02 2.0669816005e+02 8.0372333673e+01 0.0000e+00 0.0000e+00
       -6  2    1    2    0  503 -1.9972218861e+01 -1.5296659431e+01 +4.8406744953e+02 5.1455602406e+02 1.7266652509e+02 0.0000e+00 0.0000e+00
      -24  2    5    5    0    0 -4.5286675851e+01 -3.6861901770e+01 +2.0116731667e+02 2.2966928063e+02 9.4180711175e+01 0.0000e+00 0.0000e+00
        5  1    3    3  501    0 -7.4532115539e+01 -7.9733281619e+00 +5.8585689749e+01 9.5252208646e+01 4.7000000000e+00 0.0000e+00 -1.0000e+00
      -13  1    4    4    0    0 +1.8145764633e+01 +3.9252141706e+01 +4.0968799244e+01 5.9568799838e+01 0.0000000000e+00 0.0000e+00 1.0000e+00
       14  1    4    4    0    0 +1.6341792504e+01 -1.8008690315e+01 +1.4510575980e+02 1.4712936021e+02 0.0000000000e+00 0.0000e+00 -1.0000e+00
       -5  1    5    5    0  503 +2.5314456990e+01 +2.1565242339e+01 +2.8290013286e+02 2.8488674343e+02 4.7000000000e+00 0.0000e+00 1.0000e+00
       13  1    6    6    0    0 -4.2739501039e+01 +2.1663360380e+01 +5.9688425368e+01 7.6541977078e+01 0.0000000000e+00 0.0000e+00 -1.0000e+00
      -14  1    6    6    0    0 -2.5471748117e+00 -5.8525262150e+01 +1.4147889130e+02 1.5312730355e+02 0.0000000000e+00 0.0000e+00 1.0000e+00
       21  1    1    2  504  502 +2.2744160851e+01 +1.8127626406e+01 -3.4640449590e+01 4.5231277228e+01 0.0000000000e+00 0.0000e+00 -1.0000e+00
        2  1    1    2  502    0 +3.7272616412e+01 -1.6101090203e+01 -3.5771726147e+02 3.6001407221e+02 0.0000000000e+00 0.0000e+00 1.0000e+00
<mgrwt>
<rscale>  4 0.17308292E+03</rscale>
<asrwt>0</asrwt>
<pdfrwt beam="1">  1       21 0.11985552E+00 0.17328428E+03</pdfrwt>
<pdfrwt beam="2">  1        2 0.68106289E-01 0.17328428E+03</pdfrwt>
<totfact> 0.47859036E+02</totfact>
</mgrwt>
</event>
<event>
14      3 +1.4674046e+01 1.84537700e+02 7.54677100e-03 1.16352200e-01
       21 -1    0    0  504  502 +0.0000000000e+00 +0.0000000000e+00 +1.1140043489e+02 1.1140043489e+02 0.0000000000e+00 0.0000e+00 -1.0000e+00
       21 -1    0    0  501  503 -0.0000000000e+00 -0.0000000000e+00 -2.1465587451e+03 2.1465587451e+03 0.0000000000e+00 0.0000e+00 1.0000e+00
        6  2    1    2  501    0 -1.2624820482e+02 -9.1928615003e+01 -2.9516816883e+02 3.7630533393e+02 1.7347039223e+02 0.0000e+00 0.0000e+00
       24  2    3    3    0    0 -1.1789473522e+02 -1.3036558521e+02 -2.3073674894e+02 3.0067016353e+02 7.9175409851e+01 0.0000e+00 0.0000e+00
       -6  2    1    2    0  502 +4.8597261486e+01 -3.9129479410e+01 -4.6274529956e+02 4.9805162865e+02 1.7328993784e+02 0.0000e+00 0.0000e+00
      -24  2    5    5    0    0 -1.2107683972e+01 -5.3849115637e+01 -1.4500234139e+02 1.7419296262e+02 7.9190819882e+01 0.0000e+00 0.0000e+00
        5  1    3    3  501    0 -8.3534696033e+00 +3.8436970207e+01 -6.4431419889e+01 7.5635170404e+01 4.7000000000e+00 0.0000e+00 -1.0000e+00
      -13  1    4    4    0    0 -7.4979973619e+01 -2.8644863433e+01 -1.1943462674e+02 1.4389980789e+02 0.0000000000e+00 0.0000e+00 1.0000e+00
       14  1    4    4    0    0 -4.2914761601e+01 -1.0172072178e+02 -1.1130212220e+02 1.5677035564e+02 0.0000000000e+00 0.0000e+00 -1.0000e+00
       -5  1    5    5    0  502 +6.0704945457e+01 +1.4719636227e+01 -3.1774295817e+02 3.2385866603e+02 4.7000000000e+00 0.0000e+00 1.0000e+00
       13  1    6    6    0    0 +4.2210311695e+00 +1.7117447873e+01 -8.7055982448e+00 1.9662440506e+01 0.0000000000e+00 0.0000e+00 -1.0000e+00
      -14  1    6    6    0    0 -1.6328715141e+01 -7.0966563511e+01 -1.3629674314e+02 1.5453052212e+02 0.0000000000e+00 0.0000e+00 1.0000e+00
       21  1    1    2  504  505 +1.1104696409e+02 +9.3381278328e+01 -4.7269946106e+01 1.5259731053e+02 0.0000000000e+00 0.0000e+00 -1.0000e+00
       21  1    1    2  505  503 -3.3396020753e+01 +3.7676816085e+01 -1.2299748957e+03 1.2310049068e+03 0.0000000000e+00 0.0000e+00 1.0000e+00
<mgrwt>
<rscale>  4 0.18449528E+03</rscale>
<asrwt>0</asrwt>
<pdfrwt beam="1">  1       21 0.17138529E-01 0.18453770E+03</pdfrwt>
<pdfrwt beam="2">  1       21 0.33023980E+00 0.18453770E+03</pdfrwt>
<totfact> 0.71020499E+02</totfact>
</mgrwt>
</event>
<event>
13      2 +1.4674046e+01 2.23502100e+02 7.54677100e-03 1.13226400e-01
       21 -1    0    0  501  502 +0.0000000000e+00 +0.0000000000e+00 +4.9241095511e+02 4.9241095511e+02 0.0000000000e+00 0.0000e+00 1.0000e+00
       21 -1    0    0  504  503 -0.0000000000e+00 -0.0000000000e+00 -1.2537385323e+02 1.2537385323e+02 0.0000000000e+00 0.0000e+00 1.0000e+00
       -6  2    1    2    0  503 -1.3145046112e+02 -4.8440709891e+01 +7.4083198547e+01 2.3659443860e+02 1.7567834802e+02 0.0000e+00 0.0000e+00
      -24  2    3    3    0    0 -4.3409926203e+01 -1.9280525007e+01 +1.0374883359e+02 1.3910806994e+02 7.9568048324e+01 0.0000e+00 0.0000e+00
        6  2    1    2  501    0 +1.0082819981e+02 +4.2379471938e+01 +2.6081321469e+02 3.3638539949e+02 1.8212429414e+02 0.0000e+00 0.0000e+00
       24  2    5    5    0    0 +1.2070188604e+02 +3.5333345241e+01 +2.7538367299e+02 3.1032777947e+02 6.8189242380e+01 0.0000e+00 0.0000e+00
        5  1    5    5  501    0 -1.9873686234e+01 +7.0461266969e+00 -1.4570458305e+01 2.6057620022e+01 4.7000000000e+00 0.0000e+00 -1.0000e+00
      -13  1    6    6    0    0 +8.2737749440e+01 +3.0813270375e+01 +1.1244942499e+02 1.4296805935e+02 0.0000000000e+00 0.0000e+00 1.0000e+00
       14  1    6    6    0    0 +3.7964136605e+01 +4.5200748656e+00 +1.6293424801e+02 1.6735972012e+02 0.0000000000e+00 0.0000e+00 -1.0000e+00
       -5  1    3    3    0  503 -8.8040534920e+01 -2.9160184885e+01 -2.9665635040e+01 9.7486368657e+01 4.7000000000e+00 0.0000e+00 1.0000e+00
       13  1    4    4    0    0 -3.1529452584e+01 +2.9062387265e+01 +4.7250202878e+01 6.3806820997e+01 0.0000000000e+00 0.0000e+00 -1.0000e+00
      -14  1    4    4    0    0 -1.1880473619e+01 -4.8342912271e+01 +5.6498630709e+01 7.5301248942e+01 0.0000000000e+00 0.0000e+00 1.0000e+00
       21  1    1    2  504  502 +3.0622261313e+01 +6.0612379533e+00 +3.2140688642e+01 4.4804970258e+01 0.0000000000e+00 0.0000e+00 -1.0000e+00
<mgrwt>
<rscale>  3 0.22218539E+03</rscale>
<asrwt>0</asrwt>
<pdfrwt beam="1">  1       21 0.75755531E-01 0.22350214E+03</pdfrwt>
<pdfrwt beam="2">  1       21 0.19288285E-01 0.22350214E+03</pdfrwt>
<totfact> 0.37794998E+04</totfact>
</mgrwt>
</event>
<event>
14      3 +1.4674046e+01 1.99913900e+02 7.54677100e-03 1.14988600e-01
        2 -1    0    0  504    0 -0.0000000000e+00 +0.0000000000e+00 +2.0185721917e+03 2.0185721917e+03 0.0000000000e+00 0.0000e+00 1.0000e+00
       21 -1    0    0  501  503 +0.0000000000e+00 -0.0000000000e+00 -3.4013522090e+02 3.4013522090e+02 0.0000000000e+00 0.0000e+00 1.0000e+00
       -6  2    1    2    0  502 -1.2820048225e+02 -5.4548735151e+01 -2.0208200022e+02 3.0092154423e+02 1.7408536070e+02 0.0000e+00 0.0000e+00
      -24  2    3    3    0    0 -8.9952713634e+01 +2.7268886927e+01 -8.8389582273e+01 1.5564569976e+02 8.7050460740e+01 0.0000e+00 0.0000e+00
        6  2    1    2  501    0 +3.8433891671e+00 +1.1604501735e+01 +3.8596298023e+01 1.7833489757e+02 1.7367851153e+02 0.0000e+00 0.0000e+00
       24  2    5    5    0    0 +5.0133081889e+01 -3.2844773853e+01 -1.2754522770e+00 1.0263601895e+02 8.3309186395e+01 0.0000e+00 0.0000e+00
        5  1    5    5  501    0 -4.6289692722e+01 +4.4449275587e+01 +3.9871750300e+01 7.5698878621e+01 4.7000000000e+00 0.0000e+00 -1.0000e+00
      -13  1    6    6    0    0 +5.9265374627e+01 -4.1021096182e+01 +2.2818807219e+01 7.5602995473e+01 0.0000000000e+00 0.0000e+00 1.0000e+00
       14  1    6    6    0    0 -9.1322927381e+00 +8.1763223296e+00 -2.4094259496e+01 2.7033023474e+01 0.0000000000e+00 0.0000e+00 -1.0000e+00
       -5  1    3    3    0  502 -3.8247768618e+01 -8.1817622078e+01 -1.1369241795e+02 1.4527584447e+02 4.7000000000e+00 0.0000e+00 1.0000e+00
       13  1    4    4    0    0 +1.7307093794e+01 +2.1891568884e+00 -1.7152386666e+01 2.4464919208e+01 0.0000000000e+00 0.0000e+00 -1.0000e+00
      -14  1    4    4    0    0 -1.0725980743e+02 +2.5079730038e+01 -7.1237195607e+01 1.3118078055e+02 0.0000000000e+00 0.0000e+00 1.0000e+00
       21  1    1    2  504  503 -3.3574448583e+01 -1.2271749560e+02 +4.0800701374e+02 4.2738337659e+02 0.0000000000e+00 0.0000e+00 1.0000e+00
        2  1    1    2  502    0 +1.5793154167e+02 +1.6566172902e+02 +1.4339156593e+03 1.4520675942e+03 0.0000000000e+00 0.0000e+00 1.0000e+00
<mgrwt>
<rscale>  4 0.19982532E+03</rscale>
<asrwt>0</asrwt>
<pdfrwt beam="2">  1       21 0.52328497E-01 0.19991392E+03</pdfrwt>
<pdfrwt beam="1">  1        2 0.31054956E+00 0.19991392E+03</pdfrwt>
<totfact> 0.32447691E+02</totfact>
</mgrwt>
</event>
<event>
14      3 +1.4674046e+01 1.79357000e+02 7.54677100e-03 1.16862400e-01
        2 -1    0    0  501    0 -0.0000000000e+00 +0.0000000000e+00 +5.3239072872e+02 5.3239072872e+02 0.0000000000e+00 0.0000e+00 1.0000e+00
       21 -1    0    0  502  503 +0.0000000000e+00 -0.0000000000e+00 -1.2632989255e+03 1.2632989255e+03 0.0000000000e+00 0.0000e+00 -1.0000e+00
        6  2    1    2  501    0 -1.3582799172e+01 -8.2756207465e+01 -6.3688769489e+00 1.9200487307e+02 1.7260424786e+02 0.0000e+00 0.0000e+00
       24  2    3    3    0    0 -6.3252589525e+01 -9.9779037073e+01 -7.9325067513e+00 1.3926589564e+02 7.3316565007e+01 0.0000e+00 0.0000e+00
       -6  2    1    2    0  504 +2.3059617957e+01 -1.3672809183e+01 +1.1624701519e+02 2.1050911858e+02 1.7344171579e+02 0.0000e+00 0.0000e+00
      -24  2    5    5    0    0 +2.2496294209e+01 +2.9481710715e+01 +2.5261709625e+00 8.8783400954e+01 8.0627887392e+01 0.0000e+00 0.0000e+00
        5  1    3    3  501    0 +4.9669790353e+01 +1.7022829608e+01 +1.5636298024e+00 5.2738977424e+01 4.7000000000e+00 0.0000e+00 -1.0000e+00
      -13  1    4    4    0    0 -5.2122397602e+01 -5.5066439825e+01 +2.8007328788e+01 8.0829868196e+01 0.0000000000e+00 0.0000e+00 1.0000e+00
       14  1    4    4    0    0 -1.1130191923e+01 -4.4712597249e+01 -3.5939835539e+01 5.8436027445e+01 0.0000000000e+00 0.0000e+00 -1.0000e+00
       -5  1    5    5    0  504 +5.6332374756e-01 -4.3154519897e+01 +1.1372084422e+02 1.2172571763e+02 4.7000000000e+00 0.0000e+00 1.0000e+00
       13  1    6    6    0    0 -8.8252518652e+00 -2.0629783990e+01 -1.5182687602e+01 2.7092195570e+01 0.0000000000e+00 0.0000e+00 -1.0000e+00
      -14  1    6    6    0    0 +3.1321546074e+01 +5.0111494705e+01 +1.7708858565e+01 6.1691205384e+01 0.0000000000e+00 0.0000e+00 1.0000e+00
       21  1    1    2  504  503 +2.1798742602e+01 +1.3831275674e+01 -1.1097663040e+03 1.1100665470e+03 0.0000000000e+00 0.0000e+00 -1.0000e+00
        2  1    1    2  502    0 -3.1275561387e+01 +8.2597740974e+01 +2.6897996901e+02 2.8310911551e+02 0.0000000000e+00 0.0000e+00 1.0000e+00
<mgrwt>
<rscale>  4 0.17915425E+03</rscale>
<asrwt>0</asrwt>
<pdfrwt beam="2">  1       21 0.19435368E+00 0.17935702E+03</pdfrwt>
<pdfrwt beam="1">  1        2 0.81906268E-01 0.17935702E+03</pdfrwt>
<totfact> 0.10757055E+02</totfact>
</mgrwt>
</event>
<event>
14      3 +1.4674046e+01 2.01549500e+02 7.54677100e-03 1.14843800e-01
       21 -1    0    0  504  503 +0.0000000000e+00 +0.0000000000e+00 +3.2479505841e+02 3.2479505841e+02 0.0000000000e+00 0.0000e+00 -1.0000e+00
        2 -1    0    0  501    0 -0.0000000000e+00 -0.0000000000e+00 -7.0589663722e+02 7.0589663722e+02 0.0000000000e+00 0.0000e+00 -1.0000e+00
        6  2    1    2  501    0 -8.4839221015e+01 -4.1592458522e+01 -2.9222216499e+02 3.5196966004e+02 1.7193377170e+02 0.0000e+00 0.0000e+00
       24  2    3    3    0    0 +2.9796908947e+00 -4.6957867823e+01 -8.3158606169e+01 1.2509830766e+02 8.0748454414e+01 0.0000e+00 0.0000e+00
       -6  2    1    2    0  503 +1.3290356182e+02 +7.1208390547e+01 -1.4490737375e+02 2.6427172757e+02 1.6157786790e+02 0.0000e+00 0.0000e+00
      -24  2    5    5    0    0 +3.1201114577e+01 +6.3680496704e+01 -4.8978092962e+01 1.2418399123e+02 8.9409702358e+01 0.0000e+00 0.0000e+00
        5  1    3    3  501    0 -8.7818911910e+01 +5.3654093001e+00 -2.0906355882e+02 2.2687135239e+02 4.7000000000e+00 0.0000e+00 -1.0000e+00
      -13  1    4    4    0    0 -3.1089552977e+01 -3.7187305497e+01 -1.9516767771e+01 5.2252848904e+01 0.0000000000e+00 0.0000e+00 1.0000e+00
       14  1    4    4    0    0 +3.4069243871e+01 -9.7705623260e+00 -6.3641838398e+01 7.2845458752e+01 0.0000000000e+00 0.0000e+00 -1.0000e+00
       -5  1    5    5    0  503 +1.0170244724e+02 +7.5278938423e+00 -9.5929280785e+01 1.4008773634e+02 4.7000000000e+00 0.0000e+00 1.0000e+00
       13  1    6    6    0    0 +5.9993495694e+01 +5.0957415690e+01 -4.8974311833e+01 9.2705776297e+01 0.0000000000e+00 0.0000e+00 -1.0000e+00
      -14  1    6    6    0    0 -2.8792381117e+01 +1.2723081015e+01 -3.7811289730e-03 3.1478214931e+01 0.0000000000e+00 0.0000e+00 1.0000e+00
       21  1    1    2  504  502 +1.1877304524e+02 -1.2015642993e+02 +1.2745480516e+02 2.1163490092e+02 0.0000000000e+00 0.0000e+00 -1.0000e+00
        2  1    1    2  502    0 -1.6683738604e+02 +9.0540497903e+01 -7.1426845234e+01 2.0281540711e+02 0.0000000000e+00 0.0000e+00 -1.0000e+00
<mgrwt>
<rscale>  4 0.20154946E+03</rscale>
<asrwt>0</asrwt>
<pdfrwt beam="1">  1       21 0.49968470E-01 0.20154946E+03</pdfrwt>
<pdfrwt beam="2">  1        2 0.10859948E+00 0.20154946E+03</pdfrwt>
<totfact> 0.19895054E+03</totfact>
</mgrwt>
</event>
<event>
12      1 +1.4674046e+01 2.39763300e+02 7.54677100e-03 1.12003800e-01
       21 -1    0    0  503  502 +0.0000000000e+00 +0.0000000000e+00 +4.2173549322e+02 4.2173549322e+02 0.0000000000e+00 0.0000e+00 1.0000e+00
       21 -1    0    0  501  503 -0.0000000000e+00 -0.0000000000e+00 -1.4395387504e+02 1.4395387504e+02 0.0000000000e+00 0.0000e+00 -1.0000e+00
        6  2    1    2  501    0 -1.6009071808e+02 -3.8947924740e+01 +2.0518346878e+02 3.1517607709e+02 1.7346390071e+02 0.0000e+00 0.0000e+00
       24  2    3    3    0    0 -5.1309315321e+01 -7.7369722815e+01 +1.0959498883e+02 1.6527986081e+02 8.1778059200e+01 0.0000e+00 0.0000e+00
       -6  2    1    2    0  502 +1.6009071808e+02 +3.8947924740e+01 +7.2598149397e+01 2.5051329117e+02 1.7418507084e+02 0.0000e+00 0.0000e+00
      -24  2    5    5    0    0 +1.3408581649e+01 -5.6564303788e+00 +2.9327220475e+01 9.1140580422e+01 8.5057241152e+01 0.0000e+00 0.0000e+00
        5  1    3    3  501    0 -1.0878140276e+02 +3.8421798075e+01 +9.5588479958e+01 1.4989621628e+02 4.7000000000e+00 0.0000e+00 -1.0000e+00
      -13  1    4    4    0    0 +1.4878128262e+01 +5.4502169373e+00 +5.6945422588e+00 1.6837202166e+01 0.0000000000e+00 0.0000e+00 1.0000e+00
       14  1    4    4    0    0 -6.6187443583e+01 -8.2819939752e+01 +1.0390044657e+02 1.4844265865e+02 0.0000000000e+00 0.0000e+00 -1.0000e+00
       -5  1    5    5    0  502 +1.4668213643e+02 +4.4604355118e+01 +4.3270928922e+01 1.5937271075e+02 4.7000000000e+00 0.0000e+00 1.0000e+00
       13  1    6    6    0    0 +2.5687567863e+01 -3.2427390625e+01 -9.4615717216e+00 4.2437108112e+01 0.0000000000e+00 0.0000e+00 -1.0000e+00
      -14  1    6    6    0    0 -1.2278986214e+01 +2.6770960247e+01 +3.8788792197e+01 4.8703472310e+01 0.0000000000e+00 0.0000e+00 1.0000e+00
<mgrwt>
<rscale>  2 0.23963229E+03</rscale>
<asrwt>0</asrwt>
<pdfrwt beam="1">  1       21 0.64882383E-01 0.23976325E+03</pdfrwt>
<pdfrwt beam="2">  1       21 0.22146750E-01 0.23976325E+03</pdfrwt>
<totfact> 0.40775911E+04</totfact>
</mgrwt>
</event>
<event>
14      3 +1.4674046e+01 4.24632200e+02 7.54677100e-03 1.05700100e-01
       21 -1    0    0  501  503 +0.0000000000e+00 +0.0000000000e+00 +2.4489424647e+03 2.4489424647e+03 0.0000000000e+00 0.0000e+00 -1.0000e+00
        1 -1    0    0  504    0 -0.0000000000e+00 -0.0000000000e+00 -4.3798603196e+02 4.3798603196e+02 0.0000000000e+00 0.0000e+00 1.0000e+00
        6  2    1    2  501    0 +1.2081508051e+02 -9.7045764342e+01 +1.0099550619e+03 1.0383135510e+03 1.8458504606e+02 0.0000e+00 0.0000e+00
       24  2    3    3    0    0 +1.0041372830e+02 -7.4154334159e+01 +9.9086259703e+02 1.0018876679e+03 7.9927659957e+01 0.0000e+00 0.0000e+00
       -6  2    1    2    0  502 +6.3865780720e+01 +2.3731311011e+02 +7.9253850073e+02 8.4767483965e+02 1.7331765187e+02 0.0000e+00 0.0000e+00
      -24  2    5    5    0    0 +1.0662521194e+02 +2.0945935567e+02 +6.6923063073e+02 7.1414161757e+02 8.2984669263e+01 0.0000e+00 0.0000e+00
        5  1    3    3  501    0 +2.0401352204e+01 -2.2891430183e+01 +1.9092464831e+01 3.6425883118e+01 4.7000000000e+00 0.0000e+00 -1.0000e+00
      -13  1    4    4    0    0 +1.6167123529e+01 -4.5859338751e+00 +2.6659203032e+01 3.1513802991e+01 0.0000000000e+00 0.0000e+00 1.0000e+00
       14  1    4    4    0    0 +8.4246604773e+01 -6.9568400284e+01 +9.6420339400e+02 9.7037386493e+02 0.0000000000e+00 0.0000e+00 -1.0000e+00
       -5  1    5    5    0  502 -4.2759431219e+01 +2.7853754435e+01 +1.2330787000e+02 1.3353322208e+02 4.7000000000e+00 0.0000e+00 1.0000e+00
       13  1    6    6    0    0 +4.5769320344e+01 +7.5530318034e+01 +1.4607934490e+02 1.7070100947e+02 0.0000000000e+00 0.0000e+00 -1.0000e+00
      -14  1    6    6    0    0 +6.0855891595e+01 +1.3392903764e+02 +5.2315128583e+02 5.4344060810e+02 0.0000000000e+00 0.0000e+00 1.0000e+00
       21  1    1    2  504  503 -1.2232233429e+01 +2.2901665370e+02 +4.6561335709e+02 5.1903184248e+02 0.0000000000e+00 0.0000e+00 -1.0000e+00
        1  1    1    2  502    0 -1.7244862780e+02 -3.6928399947e+02 -2.5715048695e+02 4.8190826350e+02 0.0000000000e+00 0.0000e+00 1.0000e+00
<mgrwt>
<rscale>  4 0.36402494E+03</rscale>
<asrwt>0</asrwt>
<pdfrwt beam="1">  1       21 0.37676037E+00 0.42463224E+03</pdfrwt>
<pdfrwt beam="2">  1        1 0.67382468E-01 0.42463224E+03</pdfrwt>
<totfact> 0.56185685E+00</totfact>
</mgrwt>
</event>
<event>
14      3 +1.4674046e+01 2.62918800e+02 7.54677100e-03 1.10586300e-01
       21 -1    0    0  504  502 +0.0000000000e+00 +0.0000000000e+00 +1.4252740028e+02 1.4252740028e+02 0.0000000000e+00 0.0000e+00 1.0000e+00
       21 -1    0    0  501  503 -0.0000000000e+00 -0.0000000000e+00 -8.2695693999e+02 8.2695693999e+02 0.0000000000e+00 0.0000e+00 1.0000e+00
        6  2    1    2  501    0 +1.7590548981e+02 -1.5332220562e+02 -1.4287622981e+02 3.2062533700e+02 1.6714230346e+02 0.0000e+00 0.0000e+00
       24  2    3    3    0    0 +1.6272885876e+02 -9.1370690154e+01 -1.5533675404e+02 2.5590309555e+02 8.0793580587e+01 0.0000e+00 0.0000e+00
       -6  2    1    2    0  502 -1.0394475925e+02 +1.1877763318e+02 -3.1610634267e+02 3.9292592595e+02 1.7191545680e+02 0.0000e+00 0.0000e+00
      -24  2    5    5    0    0 -1.0002747327e+02 +1.4900533922e+02 -2.3523725253e+02 3.0637559908e+02 7.9506956953e+01 0.0000e+00 0.0000e+00
        5  1    3    3  501    0 +1.3176631047e+01 -6.1951515467e+01 +1.2460524235e+01 6.4722241452e+01 4.7000000000e+00 0.0000e+00 -1.0000e+00
      -13  1    4    4    0    0 +5.0092518186e+01 -1.6478130389e+01 -3.9345371800e+00 5.2879766851e+01 0.0000000000e+00 0.0000e+00 1.0000e+00
       14  1    4    4    0    0 +1.1263634057e+02 -7.4892559765e+01 -1.5140221686e+02 2.0302332870e+02 0.0000000000e+00 0.0000e+00 -1.0000e+00
       -5  1    5    5    0  502 -3.9172859731e+00 -3.0227706043e+01 -8.0869090139e+01 8.6550326873e+01 4.7000000000e+00 0.0000e+00 1.0000e+00
       13  1    6    6    0    0 -2.4305137708e+01 +3.0814350889e+01 -1.1513174936e+02 1.2163709816e+02 0.0000000000e+00 0.0000e+00 -1.0000e+00
      -14  1    6    6    0    0 -7.5722335566e+01 +1.1819098833e+02 -1.2010550318e+02 1.8473850091e+02 0.0000000000e+00 0.0000e+00 1.0000e+00
       21  1    1    2  504  505 -1.9200532614e+01 +6.1903874991e+00 +2.4264828284e+00 2.0319182290e+01 0.0000000000e+00 0.0000e+00 -1.0000e+00
       21  1    1    2  505  503 -5.2760197946e+01 +2.8354184946e+01 -2.2787345005e+02 2.3561389503e+02 0.0000000000e+00 0.0000e+00 1.0000e+00
<mgrwt>
<rscale>  4 0.26214140E+03</rscale>
<asrwt>0</asrwt>
<pdfrwt beam="1">  1       21 0.21927293E-01 0.26291883E+03</pdfrwt>
<pdfrwt beam="2">  1       21 0.12722414E+00 0.26291883E+03</pdfrwt>
<totfact> 0.84642395E+03</totfact>
</mgrwt>
</event>
<event>
14      3 +1.4674046e+01 2.74809300e+02 7.54677100e-03 1.09873700e-01
       21 -1    0    0  501  502 +0.0000000000e+00 +0.0000000000e+00 +1.4877372895e+02 1.4877372895e+02 0.0000000000e+00 0.0000e+00 -1.0000e+00
       21 -1    0    0  504  503 -0.0000000000e+00 -0.0000000000e+00 -8.0823466980e+02 8.0823466980e+02 0.0000000000e+00 0.0000e+00 1.0000e+00
        6  2    1    2  501    0 +1.1220634942e+02 -1.9462764036e+02 -1.9789448905e+02 3.4705941958e+02 1.7555007456e+02 0.0000e+00 0.0000e+00
       24  2    3    3    0    0 +2.0022708937e+01 -1.8607301714e+01 -5.1324532707e+01 1.0010633640e+02 8.1485767954e+01 0.0000e+00 0.0000e+00
       -6  2    1    2    0  505 -4.8774609723e+01 +1.8354573131e+02 -3.5558022951e+02 4.3888930369e+02 1.7354689058e+02 0.0000e+00 0.0000e+00
      -24  2    5    5    0    0 -6.0156573415e+01 +1.2570214086e+02 -1.3166998185e+02 2.0730061859e+02 7.8846184474e+01 0.0000e+00 0.0000e+00
        5  1    3    3  501    0 +9.2183640487e+01 -1.7602033865e+02 -1.4656995635e+02 2.4695308318e+02 4.7000000000e+00 0.0000e+00 -1.0000e+00
      -13  1    4    4    0    0 -2.5704492701e+01 -2.2092281331e+01 -3.8708711766e+00 3.4114124393e+01 0.0000000000e+00 0.0000e+00 1.0000e+00
       14  1    4    4    0    0 +4.5727201638e+01 +3.4849796172e+00 -4.7453661531e+01 6.5992212005e+01 0.0000000000e+00 0.0000e+00 -1.0000e+00
       -5  1    5    5    0  505 +1.1381963692e+01 +5.7843590453e+01 -2.2391024767e+02 2.3158868509e+02 4.7000000000e+00 0.0000e+00 1.0000e+00
       13  1    6    6    0    0 -2.5071023142e+01 +1.1832369882e+02 -1.1786333880e+02 1.6888108401e+02 0.0000000000e+00 0.0000e+00 -1.0000e+00
      -14  1    6    6    0    0 -3.5085550273e+01 +7.3784420364e+00 -1.3806643052e+01 3.8419534578e+01 0.0000000000e+00 0.0000e+00 1.0000e+00
       21  1    1    2  504  502 -5.2127169179e+01 -4.4753258476e+01 -2.7327654650e+01 7.3938465087e+01 0.0000000000e+00 0.0000e+00 1.0000e+00
       21  1    1    2  505  503 -1.1304570522e+01 +5.5835167523e+01 -7.8658567632e+01 9.7121210396e+01 0.0000000000e+00 0.0000e+00 -1.0000e+00
<mgrwt>
<rscale>  4 0.27448993E+03</rscale>
<asrwt>0</asrwt>
<pdfrwt beam="1">  1       21 0.22888266E-01 0.27480931E+03</pdfrwt>
<pdfrwt beam="2">  1       21 0.12434380E+00 0.27480931E+03</pdfrwt>
<totfact> 0.82124502E+03</totfact>
</mgrwt>
</event>
<event>
12      1 +1.4674046e+01 2.14768900e+02 7.54677100e-03 1.13805700e-01
       21 -1    0    0  501  502 +0.0000000000e+00 +0.0000000000e+00 +4.7149543876e+02 4.7149543876e+02 0.0000000000e+00 0.0000e+00 1.0000e+00
       21 -1    0    0  502  503 -0.0000000000e+00 -0.0000000000e+00 -1.7120154714e+02 1.7120154714e+02 0.0000000000e+00 0.0000e+00 1.0000e+00
       -6  2    1    2    0  503 -8.2926929085e+01 -9.5758824319e+01 -6.1162549309e+01 2.2224907413e+02 1.7206732842e+02 0.0000e+00 0.0000e+00
      -24  2    3    3    0    0 -5.9094443402e+01 +1.7882071980e+00 -6.8489813167e+01 1.2145626919e+02 8.1027278691e+01 0.0000e+00 0.0000e+00
        6  2    1    2  501    0 +8.2926929085e+01 +9.5758824319e+01 +3.6145644093e+02 4.2044791177e+02 1.7343315662e+02 0.0000e+00 0.0000e+00
       24  2    5    5    0    0 +7.4120028177e+01 +5.6088627710e+01 +3.5899651255e+02 3.7946709613e+02 8.0480235403e+01 0.0000e+00 0.0000e+00
        5  1    5    5  501    0 +8.8069009080e+00 +3.9670196609e+01 +2.4599283852e+00 4.0980815636e+01 4.7000000000e+00 0.0000e+00 -1.0000e+00
      -13  1    6    6    0    0 +1.2054327049e+01 +5.9395507842e+01 +1.8779155064e+02 1.9732916572e+02 0.0000000000e+00 0.0000e+00 1.0000e+00
       14  1    6    6    0    0 +6.2065701128e+01 -3.3068801319e+00 +1.7120496190e+02 1.8213793041e+02 0.0000000000e+00 0.0000e+00 -1.0000e+00
       -5  1    3    3    0  503 -2.3832485683e+01 -9.7547031517e+01 +7.3272638576e+00 1.0079280494e+02 4.7000000000e+00 0.0000e+00 1.0000e+00
       13  1    4    4    0    0 +1.0113617926e+01 +2.0835083577e+01 -1.3978472452e+00 2.3202154041e+01 0.0000000000e+00 0.0000e+00 -1.0000e+00
      -14  1    4    4    0    0 -6.9208061328e+01 -1.9046876379e+01 -6.7091965921e+01 9.8254115149e+01 0.0000000000e+00 0.0000e+00 1.0000e+00
<mgrwt>
<rscale>  2 0.21449303E+03</rscale>
<asrwt>0</asrwt>
<pdfrwt beam="1">  1       21 0.72537759E-01 0.21476892E+03</pdfrwt>
<pdfrwt beam="2">  1       21 0.26338700E-01 0.21476892E+03</pdfrwt>
<totfact> 0.23177151E+04</totfact>
</mgrwt>
</event>
<event>
12      1 +1.4674046e+01 1.72701800e+02 7.54677100e-03 1.17522400e-01
       21 -1    0    0  503  502 +0.0000000000e+00 +0.0000000000e+00 +1.5519082581e+02 1.5519082581e+02 0.0000000000e+00 0.0000e+00 -1.0000e+00
       21 -1    0    0  501  503 -0.0000000000e+00 -0.0000000000e+00 -2.1664878192e+02 2.1664878192e+02 0.0000000000e+00 0.0000e+00 -1.0000e+00
        6  2    1    2  501    0 -7.5712481337e-01 +2.1222256296e+00 -9.4155411266e+01 1.9670067660e+02 1.7268710903e+02 0.0000e+00 0.0000e+00
       24  2    3    3    0    0 +3.7628464640e+01 -5.1103495978e+01 -5.1120335515e+01 1.1808427461e+02 8.5458402475e+01 0.0000e+00 0.0000e+00
       -6  2    1    2    0  502 +7.5712481337e-01 -2.1222256296e+00 +3.2697455154e+01 1.7513893113e+02 1.7204489107e+02 0.0000e+00 0.0000e+00
      -24  2    5    5    0    0 -9.3666055181e+00 -6.8584889244e+00 +8.7421634828e+01 1.1908763367e+02 8.0028433000e+01 0.0000e+00 0.0000e+00
        5  1    3    3  501    0 -3.8385589454e+01 +5.3225721608e+01 -4.3035075751e+01 7.8616401999e+01 4.7000000000e+00 0.0000e+00 -1.0000e+00
      -13  1    4    4    0    0 -1.4133209077e+01 +7.0484894411e+00 +1.0356268611e+01 1.8886002800e+01 0.0000000000e+00 0.0000e+00 1.0000e+00
       14  1    4    4    0    0 +5.1761673717e+01 -5.8151985419e+01 -6.1476604127e+01 9.9198271805e+01 0.0000000000e+00 0.0000e+00 -1.0000e+00
       -5  1    5    5    0  502 +1.0123730331e+01 +4.7362632948e+00 -5.4724179673e+01 5.6051297458e+01 4.7000000000e+00 0.0000e+00 1.0000e+00
       13  1    6    6    0    0 +3.2717993623e+01 +8.1343063802e+00 +5.2455591210e+01 6.2355618000e+01 0.0000000000e+00 0.0000e+00 -1.0000e+00
      -14  1    6    6    0    0 -4.2084599141e+01 -1.4992795305e+01 +3.4966043617e+01 5.6732015672e+01 0.0000000000e+00 0.0000e+00 1.0000e+00
<mgrwt>
<rscale>  2 0.17254104E+03</rscale>
<asrwt>0</asrwt>
<pdfrwt beam="1">  1       21 0.23875512E-01 0.17270181E+03</pdfrwt>
<pdfrwt beam="2">  1       21 0.33330582E-01 0.17270181E+03</pdfrwt>
<totfact> 0.14427824E+05</totfact>
</mgrwt>
</event>
<event>
11      1 +1.4674046e+01 2.62745300e+02 7.54677100e-03 1.10550500e-01
       -1 -1    0    0    0  501 -0.0000000000e+00 +0.0000000000e+00 +5.7191876173e+01 5.7191876173e+01 0.0000000000e+00 0.0000e+00 -1.0000e+00
        1 -1    0    0  502    0 +0.0000000000e+00 -0.0000000000e+00 -1.3106665801e+03 1.3106665801e+03 0.0000000000e+00 0.0000e+00 1.0000e+00
       24  2    1    2    0    0 -5.7013901656e+01 +5.7915516908e-01 -6.7687039248e+02 6.8320259320e+02 7.3221135891e+01 0.0000e+00 0.0000e+00
       -6  2    1    2    0  501 -8.2296806121e+01 +7.3527570095e+01 -3.7694482654e+02 4.3012633640e+02 1.7533452355e+02 0.0000e+00 0.0000e+00
      -24  2    4    4    0    0 -7.3989357783e+01 +4.2204309815e-01 -1.2765437442e+02 1.7016239411e+02 8.4764366773e+01 0.0000e+00 0.0000e+00
        5  1    1    2  502    0 +1.3931070778e+02 -7.4106725264e+01 -1.9965948490e+02 2.5452952666e+02 4.7000000000e+00 0.0000e+00 -1.0000e+00
      -13  1    3    3    0    0 -5.0872591243e+01 +2.8629413742e+01 -3.2813534433e+02 3.3328736560e+02 0.0000000000e+00 0.0000e+00 1.0000e+00
       14  1    3    3    0    0 -6.1413104127e+00 -2.8050258572e+01 -3.4873504815e+02 3.4991522760e+02 0.0000000000e+00 0.0000e+00 -1.0000e+00
       -5  1    4    4    0  501 -8.3074483386e+00 +7.3105526997e+01 -2.4929045212e+02 2.5996394229e+02 4.7000000000e+00 0.0000e+00 1.0000e+00
       13  1    5    5    0    0 -4.5362467119e+01 +4.2138654007e+01 -7.1127437241e+01 9.4300222233e+01 0.0000000000e+00 0.0000e+00 -1.0000e+00
      -14  1    5    5    0    0 -2.8626890663e+01 -4.1716610908e+01 -5.6526937181e+01 7.5862171876e+01 0.0000000000e+00 0.0000e+00 1.0000e+00
<mgrwt>
<rscale>  2 0.26274530E+03</rscale>
<asrwt>0</asrwt>
<pdfrwt beam="2">  1        1 0.20164101E+00 0.26274530E+03</pdfrwt>
<pdfrwt beam="1">  1       -1 0.87987503E-02 0.26274530E+03</pdfrwt>
<totfact> 0.71532423E+02</totfact>
</mgrwt>
</event>
<event>
12      1 +1.4674046e+01 3.21665400e+02 7.54677100e-03 1.07488700e-01
       21 -1    0    0  501  502 +0.0000000000e+00 +0.0000000000e+00 +8.0640602388e+01 8.0640602388e+01 0.0000000000e+00 0.0000e+00 1.0000e+00
       21 -1    0    0  502  503 -0.0000000000e+00 -0.0000000000e+00 -1.6140234182e+03 1.6140234182e+03 0.0000000000e+00 0.0000e+00 1.0000e+00
       -6  2    1    2    0  503 -2.1422767710e+02 -1.6737773415e+02 -1.1504230581e+03 1.1945467207e+03 1.7192978687e+02 0.0000e+00 0.0000e+00
      -24  2    3    3    0    0 -3.0538748537e+01 -6.9051696471e+01 -4.6922305299e+02 4.8218082509e+02 8.1408369799e+01 0.0000e+00 0.0000e+00
        6  2    1    2  501    0 +2.1422767710e+02 +1.6737773415e+02 -3.8295975762e+02 5.0011729988e+02 1.7190210631e+02 0.0000e+00 0.0000e+00
       24  2    5    5    0    0 +1.1154226792e+02 +2.1039710709e+01 -1.2752987023e+02 1.8830705672e+02 7.9443897505e+01 0.0000e+00 0.0000e+00
        5  1    5    5  501    0 +1.0268540918e+02 +1.4633802344e+02 -2.5542988739e+02 3.1181024316e+02 4.7000000000e+00 0.0000e+00 -1.0000e+00
      -13  1    6    6    0    0 +8.1507568562e+01 +3.0504837760e+01 -4.0957136189e+01 9.6184800589e+01 0.0000000000e+00 0.0000e+00 1.0000e+00
       14  1    6    6    0    0 +3.0034699360e+01 -9.4651270505e+00 -8.6572734041e+01 9.2122256133e+01 0.0000000000e+00 0.0000e+00 -1.0000e+00
       -5  1    3    3    0  503 -1.8368892857e+02 -9.8326037681e+01 -6.8120000515e+02 7.1236589558e+02 4.7000000000e+00 0.0000e+00 1.0000e+00
       13  1    4    4    0    0 -1.3425846091e+01 +1.7535330863e+01 -7.4169447351e+01 7.7387648188e+01 0.0000000000e+00 0.0000e+00 -1.0000e+00
      -14  1    4    4    0    0 -1.7112902446e+01 -8.6587027334e+01 -3.9505360564e+02 4.0479317690e+02 0.0000000000e+00 0.0000e+00 1.0000e+00
<mgrwt>
<rscale>  2 0.32166174E+03</rscale>
<asrwt>0</asrwt>
<pdfrwt beam="1">  1       21 0.12406247E-01 0.32166544E+03</pdfrwt>
<pdfrwt beam="2">  1       21 0.24831130E+00 0.32166544E+03</pdfrwt>
<totfact> 0.33799968E+03</totfact>
</mgrwt>
</event>
<event>
12      1 +1.4674046e+01 1.96071700e+02 7.54677100e-03 1.15309600e-01
        1 -1    0    0  502    0 +0.0000000000e+00 +0.0000000000e+00 +2.1307162255e+02 2.1307162255e+02 0.0000000000e+00 0.0000e+00 1.0000e+00
       -1 -1    0    0    0  501 -0.0000000000e+00 -0.0000000000e+00 -1.8370228990e+02 1.8370228990e+02 0.0000000000e+00 0.0000e+00 -1.0000e+00
        6  2    1    2  502    0 -6.2805558498e+01 +6.9139183708e+01 -1.1859288974e+01 1.9528960408e+02 1.7109243649e+02 0.0000e+00 0.0000e+00
       24  2    3    3    0    0 -4.2723796233e+01 +8.3171016285e+01 +4.5870306418e+01 1.3240108617e+02 8.1750974871e+01 0.0000e+00 0.0000e+00
       -6  2    1    2    0  501 +6.2805558498e+01 -6.9139183708e+01 +4.1228621627e+01 2.0148430837e+02 1.7369905692e+02 0.0000e+00 0.0000e+00
      -24  2    5    5    0    0 +1.0648172305e+02 -2.8585624580e+01 +3.1797777093e+01 1.4095969076e+02 8.1872098516e+01 0.0000e+00 0.0000e+00
        5  1    3    3  502    0 -2.0081762265e+01 -1.4031832577e+01 -5.7729595392e+01 6.2888517913e+01 4.7000000000e+00 0.0000e+00 -1.0000e+00
      -13  1    4    4    0    0 -6.2281494988e+01 +4.4169483249e+01 +4.5272016919e+01 8.8766454162e+01 0.0000000000e+00 0.0000e+00 1.0000e+00
       14  1    4    4    0    0 +1.9557698755e+01 +3.9001533036e+01 +5.9828949855e-01 4.3634632003e+01 0.0000000000e+00 0.0000e+00 -1.0000e+00
       -5  1    5    5    0  501 -4.3676164550e+01 -4.0553559128e+01 +9.4308445340e+00 6.0524617606e+01 4.7000000000e+00 0.0000e+00 1.0000e+00
       13  1    6    6    0    0 +9.4451944476e+01 +1.1237397321e+01 +1.5966607598e+01 9.6448854177e+01 0.0000000000e+00 0.0000e+00 -1.0000e+00
      -14  1    6    6    0    0 +1.2029778572e+01 -3.9823021901e+01 +1.5831169495e+01 4.4510836583e+01 0.0000000000e+00 0.0000e+00 1.0000e+00
<mgrwt>
<rscale>  2 0.19607175E+03</rscale>
<asrwt>0</asrwt>
<pdfrwt beam="1">  1        1 0.32780250E-01 0.19607175E+03</pdfrwt>
<pdfrwt beam="2">  1       -1 0.28261891E-01 0.19607175E+03</pdfrwt>
<totfact> 0.15188259E+03</totfact>
</mgrwt>
</event>
<event>
14      3 +1.4674046e+01 2.03860800e+02 7.54677100e-03 1.14731900e-01
       21 -1    0    0  504  502 +0.0000000000e+00 +0.0000000000e+00 +4.2294082646e+01 4.2294082646e+01 0.0000000000e+00 0.0000e+00 1.0000e+00
       21 -1    0    0  505  503 -0.0000000000e+00 -0.0000000000e+00 -1.3741874741e+03 1.3741874741e+03 0.0000000000e+00 0.0000e+00 -1.0000e+00
       -6  2    1    2    0  503 +7.2212913300e+01 -4.6410302635e+01 -5.2730313629e+02 5.6035254911e+02 1.6904958065e+02 0.0000e+00 0.0000e+00
      -24  2    3    3    0    0 -1.5967426227e+01 -3.3177869397e+01 -3.6083102008e+02 3.7144536279e+02 8.0105572644e+01 0.0000e+00 0.0000e+00
        6  2    1    2  504    0 -1.1314569686e+02 +5.3997567724e+01 -4.4170713052e+02 4.9086578541e+02 1.7356942153e+02 0.0000e+00 0.0000e+00
       24  2    5    5    0    0 -3.4855286353e+01 -4.1852749062e+00 -2.8205524307e+02 2.9494828444e+02 7.8784026527e+01 0.0000e+00 0.0000e+00
        5  1    5    5  501    0 -3.6869182527e+00 -7.2608216460e+00 -3.6840398569e+01 3.8021281724e+01 4.7000000000e+00 0.0000e+00 -1.0000e+00
      -13  1    6    6    0    0 -1.5238709410e+01 +3.7028699110e+01 -1.1510309938e+02 1.2186905395e+02 0.0000000000e+00 0.0000e+00 1.0000e+00
       14  1    6    6    0    0 -1.9616576943e+01 -4.1213974017e+01 -1.6695214369e+02 1.7307923049e+02 0.0000000000e+00 0.0000e+00 -1.0000e+00
       -5  1    3    3    0  503 +8.8180339526e+01 -1.3232433239e+01 -1.6647211621e+02 1.8890718632e+02 4.7000000000e+00 0.0000e+00 1.0000e+00
       13  1    4    4    0    0 +1.4287570061e+01 -4.6433970206e+01 -1.4073503326e+02 1.4888451173e+02 0.0000000000e+00 0.0000e+00 -1.0000e+00
      -14  1    4    4    0    0 -3.0254996287e+01 +1.3256100809e+01 -2.2009598683e+02 2.2256085106e+02 0.0000000000e+00 0.0000e+00 1.0000e+00
       21  1    5    5  504  501 -7.4603492258e+01 +6.5443664276e+01 -1.2281148888e+02 1.5789621925e+02 0.0000000000e+00 0.0000e+00 -1.0000e+00
       21  1    1    2  505  502 +4.0932783565e+01 -7.5872650882e+00 -3.6288312462e+02 3.6526322220e+02 0.0000000000e+00 0.0000e+00 -1.0000e+00
<mgrwt>
<rscale>  4 0.20289546E+03</rscale>
<asrwt>0</asrwt>
<pdfrwt beam="1">  1       21 0.65067816E-02 0.20386084E+03</pdfrwt>
<pdfrwt beam="2">  1       21 0.21141347E+00 0.20386084E+03</pdfrwt>
<totfact> 0.19337155E+04</totfact>
</mgrwt>
</event>
<event>
13      3 +1.4674046e+01 3.76978700e+02 7.54677100e-03 1.08002300e-01
        2 -1    0    0  503    0 +0.0000000000e+00 +0.0000000000e+00 +2.7184461879e+03 2.7184461879e+03 0.0000000000e+00 0.0000e+00 1.0000e+00
        1 -1    0    0  501    0 -0.0000000000e+00 -0.0000000000e+00 -3.9619197367e+02 3.9619197367e+02 0.0000000000e+00 0.0000e+00 1.0000e+00
       24  2    1    2    0    0 +9.2364049187e+01 -1.2294984510e+02 +2.8056218917e+02 3.2988211561e+02 8.0369684649e+01 0.0000e+00 0.0000e+00
       -6  2    1    2    0  502 +8.5898361526e+00 +9.0004441377e+00 +2.6724504670e+02 3.1860731547e+02 1.7301997921e+02 0.0000e+00 0.0000e+00
      -24  2    4    4    0    0 -4.9210733970e+01 +7.0113678113e+00 +7.9706769617e+01 1.2229746421e+02 7.8311206172e+01 0.0000e+00 0.0000e+00
        5  1    1    2  501    0 -1.0526540536e+02 +1.6981034794e+02 +4.8880412534e+02 5.2807946635e+02 4.7000000000e+00 0.0000e+00 -1.0000e+00
      -13  1    3    3    0    0 +8.3040820333e+01 -4.5992206082e+01 +1.7243827290e+02 1.9684008439e+02 0.0000000000e+00 0.0000e+00 1.0000e+00
       14  1    3    3    0    0 +9.3232288538e+00 -7.6957639022e+01 +1.0812391627e+02 1.3304203121e+02 0.0000000000e+00 0.0000e+00 -1.0000e+00
       -5  1    4    4    0  502 +5.7800570123e+01 +1.9890763264e+00 +1.8753827708e+02 1.9630985126e+02 4.7000000000e+00 0.0000e+00 1.0000e+00
       13  1    5    5    0    0 -3.3969170019e+01 +4.1022226526e+01 +3.3447858732e+01 6.2892661215e+01 0.0000000000e+00 0.0000e+00 -1.0000e+00
      -14  1    5    5    0    0 -1.5241563951e+01 -3.4010858715e+01 +4.6258910885e+01 5.9404802991e+01 0.0000000000e+00 0.0000e+00 1.0000e+00
        2  1    1    2  502    0 -1.7558069120e+00 +2.6283235142e+01 +1.6065469447e+03 1.6067628875e+03 0.0000000000e+00 0.0000e+00 1.0000e+00
        1  1    1    2  503    0 +6.0673269278e+00 -8.2144182120e+01 -3.2090409168e+02 3.3130637659e+02 0.0000000000e+00 0.0000e+00 1.0000e+00
<mgrwt>
<rscale>  4 0.31067489E+03</rscale>
<asrwt>0</asrwt>
<pdfrwt beam="1">  1        2 0.41822248E+00 0.37697871E+03</pdfrwt>
<pdfrwt beam="2">  1        1 0.60952613E-01 0.37697871E+03</pdfrwt>
<totfact> 0.24340579E+01</totfact>
</mgrwt>
</event>
<event>
13      2 +1.4674046e+01 1.80603400e+02 7.54677100e-03 1.16733000e-01
       21 -1    0    0  501  502 +0.0000000000e+00 +0.0000000000e+00 +3.8325315932e+02 3.8325315932e+02 0.0000000000e+00 0.0000e+00 1.0000e+00
       21 -1    0    0  504  503 -0.0000000000e+00 -0.0000000000e+00 -8.0087834910e+02 8.0087834910e+02 0.0000000000e+00 0.0000e+00 1.0000e+00
        6  2    1    2  501    0 -9.1765324761e+01 +2.7902467926e+01 +7.2152904876e+01 2.1081317327e+02 1.7331107811e+02 0.0000e+00 0.0000e+00
       24  2    3    3    0    0 +6.2341815727e+00 -2.1478681704e+01 +5.5519179696e+01 9.9722345592e+01 7.9761946494e+01 0.0000e+00 0.0000e+00
       -6  2    1    2    0  503 +2.9420097086e+00 -4.5228189624e+01 +2.0541810856e+02 2.7225662395e+02 1.7283756942e+02 0.0000e+00 0.0000e+00
      -24  2    5    5    0    0 -6.0608424840e+01 -3.3655925997e+00 +1.3350000493e+02 1.6744518187e+02 8.0814164854e+01 0.0000e+00 0.0000e+00
        5  1    3    3  501    0 -9.7999506334e+01 +4.9381149630e+01 +1.6633725180e+01 1.1109082768e+02 4.7000000000e+00 0.0000e+00 -1.0000e+00
      -13  1    4    4    0    0 -2.9349953915e+01 -2.8464953288e+01 +4.7332459501e+01 6.2546263541e+01 0.0000000000e+00 0.0000e+00 1.0000e+00
       14  1    4    4    0    0 +3.5584135488e+01 +6.9862715837e+00 +8.1867201948e+00 3.7176082050e+01 0.0000000000e+00 0.0000e+00 -1.0000e+00
       -5  1    5    5    0  503 +6.3550434548e+01 -4.1862597024e+01 +7.1918103638e+01 1.0481144208e+02 4.7000000000e+00 0.0000e+00 1.0000e+00
       13  1    6    6    0    0 -2.0183115689e+01 -6.1201825129e+00 -6.2037209112e+00 2.1984106670e+01 0.0000000000e+00 0.0000e+00 -1.0000e+00
      -14  1    6    6    0    0 -4.0425309150e+01 +2.7545899133e+00 +1.3970372584e+02 1.4546107520e+02 0.0000000000e+00 0.0000e+00 1.0000e+00
       21  1    1    2  504  502 +8.8823315053e+01 +1.7325721698e+01 -6.9519620322e+02 7.0106171120e+02 0.0000000000e+00 0.0000e+00 1.0000e+00
<mgrwt>
<rscale>  3 0.18048974E+03</rscale>
<asrwt>0</asrwt>
<pdfrwt beam="1">  1       21 0.58962025E-01 0.18060343E+03</pdfrwt>
<pdfrwt beam="2">  1       21 0.12321205E+00 0.18060343E+03</pdfrwt>
<totfact> 0.13464652E+03</totfact>
</mgrwt>
</event>
<event>
13      2 +1.4674046e+01 1.92024700e+02 7.54677100e-03 1.15666000e-01
       21 -1    0    0  504  502 +0.0000000000e+00 +0.0000000000e+00 +6.9726977955e+02 6.9726977955e+02 0.0000000000e+00 0.0000e+00 -1.0000e+00
       21 -1    0    0  502  503 -0.0000000000e+00 -0.0000000000e+00 -1.0141467292e+02 1.0141467292e+02 0.0000000000e+00 0.0000e+00 -1.0000e+00
       -6  2    1    2    0  503 +9.1114652158e+01 +6.0816154481e+01 +9.5136208791e+01 2.2537105759e+02 1.7245501121e+02 0.0000e+00 0.0000e+00
      -24  2    3    3    0    0 +6.6547184464e+00 +8.3014748292e+01 +4.0934357911e+01 1.2248185209e+02 7.9940282221e+01 0.0000e+00 0.0000e+00
        6  2    1    2  501    0 -5.3327786749e+01 +2.2780093535e+01 +2.7617644719e+02 3.3075310953e+02 1.7251493844e+02 0.0000e+00 0.0000e+00
       24  2    5    5    0    0 -3.6250778338e+01 -4.4996837454e+01 +9.2732495975e+01 1.3438837281e+02 7.8243751358e+01 0.0000e+00 0.0000e+00
        5  1    5    5  501    0 -1.7077008411e+01 +6.7776930990e+01 +1.8344395121e+02 1.9636473672e+02 4.7000000000e+00 0.0000e+00 -1.0000e+00
      -13  1    6    6    0    0 -2.9620382724e+01 +3.2344841060e+00 +1.6277666047e-01 2.9796903469e+01 0.0000000000e+00 0.0000e+00 1.0000e+00
       14  1    6    6    0    0 -6.6303956146e+00 -4.8231321560e+01 +9.2569719314e+01 1.0459146934e+02 0.0000000000e+00 0.0000e+00 -1.0000e+00
       -5  1    3    3    0  503 +8.4459933712e+01 -2.2198593811e+01 +5.4201850880e+01 1.0288920550e+02 4.7000000000e+00 0.0000e+00 1.0000e+00
       13  1    4    4    0    0 +3.5025628768e+01 +2.5532287248e+01 +3.9067552102e+01 5.8352086423e+01 0.0000000000e+00 0.0000e+00 -1.0000e+00
      -14  1    4    4    0    0 -2.8370910322e+01 +5.7482461044e+01 +1.8668058095e+00 6.4129765664e+01 0.0000000000e+00 0.0000e+00 1.0000e+00
       21  1    1    2  504  501 -3.7786865410e+01 -8.3596248016e+01 +2.2454245066e+02 2.4256028535e+02 0.0000000000e+00 0.0000e+00 -1.0000e+00
<mgrwt>
<rscale>  3 0.19201120E+03</rscale>
<asrwt>0</asrwt>
<pdfrwt beam="1">  1       21 0.10727227E+00 0.19202466E+03</pdfrwt>
<pdfrwt beam="2">  1       21 0.15602258E-01 0.19202466E+03</pdfrwt>
<totfact> 0.25346648E+04</totfact>
</mgrwt>
</event>
<event>
13      2 +1.4674046e+01 1.74731000e+02 7.54677100e-03 1.17317900e-01
       21 -1    0    0  502  503 +0.0000000000e+00 +0.0000000000e+00 +1.6145132011e+03 1.6145132011e+03 0.0000000000e+00 0.0000e+00 1.0000e+00
        2 -1    0    0  501    0 -0.0000000000e+00 -0.0000000000e+00 -2.3510375194e+02 2.3510375194e+02 0.0000000000e+00 0.0000e+00 1.0000e+00
        6  2    1    2  501    0 +5.1116972812e+01 -3.1196687501e+00 +3.7635407815e+02 4.1732887212e+02 1.7291130133e+02 0.0000e+00 0.0000e+00
       24  2    3    3    0    0 +7.6114172023e+01 +5.0166028064e+00 +1.2762822904e+02 1.6717352659e+02 7.6416553568e+01 0.0000e+00 0.0000e+00
       -6  2    1    2    0  503 -7.3285024739e+00 -1.2561125933e+01 +1.2088307352e+03 1.2213216902e+03 1.7361865039e+02 0.0000e+00 0.0000e+00
      -24  2    5    5    0    0 +5.7219900793e+01 +1.4250817583e+01 +8.3791395342e+02 8.4384755110e+02 8.0633078366e+01 0.0000e+00 0.0000e+00
        5  1    3    3  501    0 -2.4997199211e+01 -8.1362715565e+00 +2.4872584910e+02 2.5015534553e+02 4.7000000000e+00 0.0000e+00 -1.0000e+00
      -13  1    4    4    0    0 +2.1231311422e+01 -3.0397757703e+00 +1.0516004174e+02 1.0732494211e+02 0.0000000000e+00 0.0000e+00 1.0000e+00
       14  1    4    4    0    0 +5.4882860601e+01 +8.0563785767e+00 +2.2468187303e+01 5.9848584480e+01 0.0000000000e+00 0.0000e+00 -1.0000e+00
       -5  1    5    5    0  503 -6.4548403267e+01 -2.6811943516e+01 +3.7091678180e+02 3.7747413911e+02 4.7000000000e+00 0.0000e+00 1.0000e+00
       13  1    6    6    0    0 +3.0471517416e+01 -2.5468760725e+01 +1.8679194134e+02 1.9096701416e+02 0.0000000000e+00 0.0000e+00 -1.0000e+00
      -14  1    6    6    0    0 +2.6748383377e+01 +3.9719578308e+01 +6.5112201208e+02 6.5288053695e+02 0.0000000000e+00 0.0000e+00 1.0000e+00
        2  1    1    2  502    0 -4.3788470339e+01 +1.5680794683e+01 -2.0577536424e+02 2.1096639066e+02 0.0000000000e+00 0.0000e+00 1.0000e+00
<mgrwt>
<rscale>  3 0.17455499E+03</rscale>
<asrwt>0</asrwt>
<pdfrwt beam="1">  1       21 0.24838664E+00 0.17473096E+03</pdfrwt>
<pdfrwt beam="2">  1        2 0.36169809E-01 0.17473096E+03</pdfrwt>
<totfact> 0.12212599E+02</totfact>
</mgrwt>
</event>
<event>
13      2 +1.4674046e+01 2.49318400e+02 7.54677100e-03 1.11418900e-01
       21 -1    0    0  501  503 +0.0000000000e+00 +0.0000000000e+00 +1.0496962125e+02 1.0496962125e+02 0.0000000000e+00 0.0000e+00 -1.0000e+00
       -1 -1    0    0    0  501 -0.0000000000e+00 -0.0000000000e+00 -1.3981704890e+03 1.3981704890e+03 0.0000000000e+00 0.0000e+00 1.0000e+00
        6  2    1    2  502    0 +2.1327750436e+02 -2.3681047746e+01 -5.9739660599e+02 6.5798311776e+02 1.7323681051e+02 0.0000e+00 0.0000e+00
       24  2    3    3    0    0 +2.1936989881e+02 -5.5116236906e+01 -5.2899402244e+02 5.8231085188e+02 8.9946096984e+01 0.0000e+00 0.0000e+00
       -6  2    1    2    0  503 -1.6864674467e+02 +1.4669301602e+00 -1.2018278361e+02 2.6738068817e+02 1.6912910618e+02 0.0000e+00 0.0000e+00
      -24  2    5    5    0    0 -1.6986637952e+02 +4.6233855044e+01 -8.3599192122e+01 2.0936332664e+02 7.6498505698e+01 0.0000e+00 0.0000e+00
        5  1    3    3  502    0 -6.0923944412e+00 +3.1435189159e+01 -6.8402583545e+01 7.5672265878e+01 4.7000000000e+00 0.0000e+00 -1.0000e+00
      -13  1    4    4    0    0 +2.0861116134e+02 -3.4957304205e+01 -5.1157330834e+02 5.5357734740e+02 0.0000000000e+00 0.0000e+00 1.0000e+00
       14  1    4    4    0    0 +1.0758737467e+01 -2.0158932701e+01 -1.7420714101e+01 2.8733504473e+01 0.0000000000e+00 0.0000e+00 -1.0000e+00
       -5  1    5    5    0  503 +1.2196348495e+00 -4.4766924884e+01 -3.6583591493e+01 5.8017361533e+01 4.7000000000e+00 0.0000e+00 1.0000e+00
       13  1    6    6    0    0 -5.6260355188e+01 +4.7902031214e+01 -5.5247398325e+01 9.2261081622e+01 0.0000000000e+00 0.0000e+00 -1.0000e+00
      -14  1    6    6    0    0 -1.1360602433e+02 -1.6681761702e+00 -2.8351793797e+01 1.1710224502e+02 0.0000000000e+00 0.0000e+00 1.0000e+00
       -1  1    1    2    0  502 -4.4630759690e+01 +2.2214117586e+01 -5.7562147819e+02 5.7777630436e+02 0.0000000000e+00 0.0000e+00 1.0000e+00
<mgrwt>
<rscale>  3 0.24860619E+03</rscale>
<asrwt>0</asrwt>
<pdfrwt beam="1">  1       21 0.16149174E-01 0.24931836E+03</pdfrwt>
<pdfrwt beam="2">  1       -1 0.21510314E+00 0.24931836E+03</pdfrwt>
<totfact> 0.42343922E+02</totfact>
</mgrwt>
</event>
<event>
12      1 +1.4674046e+01 1.83820900e+02 7.54677100e-03 1.16517700e-01
       21 -1    0    0  503  502 +0.0000000000e+00 +0.0000000000e+00 +2.1069534761e+02 2.1069534761e+02 0.0000000000e+00 0.0000e+00 1.0000e+00
       21 -1    0    0  501  503 -0.0000000000e+00 -0.0000000000e+00 -1.6595112671e+02 1.6595112671e+02 0.0000000000e+00 0.0000e+00 1.0000e+00
        6  2    1    2  501    0 -1.5551247748e+01 -4.4218693664e+01 +6.7179089545e+01 1.9571195844e+02 1.7774421630e+02 0.0000e+00 0.0000e+00
       24  2    3    3    0    0 -7.4368375471e+01 -6.2273411631e+01 +6.2087514974e+01 1.3379716629e+02 6.8104251896e+01 0.0000e+00 0.0000e+00
       -6  2    1    2    0  502 +1.5551247748e+01 +4.4218693664e+01 -2.2434868641e+01 1.8093451588e+02 1.7331140046e+02 0.0000e+00 0.0000e+00
      -24  2    5    5    0    0 -9.6623538919e-01 +9.4454552414e+01 -5.6722773817e+00 1.2526097442e+02 8.2070341160e+01 0.0000e+00 0.0000e+00
        5  1    3    3  501    0 +5.8817127724e+01 +1.8054717967e+01 +5.0915745710e+00 6.1914792143e+01 4.7000000000e+00 0.0000e+00 -1.0000e+00
      -13  1    4    4    0    0 -2.2597815414e+01 +9.3518903203e-01 -1.0101708825e+01 2.4770554318e+01 0.0000000000e+00 0.0000e+00 1.0000e+00
       14  1    4    4    0    0 -5.1770560057e+01 -6.3208600663e+01 +7.2189223799e+01 1.0902661198e+02 0.0000000000e+00 0.0000e+00 -1.0000e+00
       -5  1    5    5    0  502 +1.6517483137e+01 -5.0235858750e+01 -1.6762591259e+01 5.5673541465e+01 4.7000000000e+00 0.0000e+00 1.0000e+00
       13  1    6    6    0    0 +2.0491510378e+01 +2.6143121508e+01 -3.4665831383e+01 4.8011297267e+01 0.0000000000e+00 0.0000e+00 -1.0000e+00
      -14  1    6    6    0    0 -2.1457745767e+01 +6.8311430907e+01 +2.8993554001e+01 7.7249677149e+01 0.0000000000e+00 0.0000e+00 1.0000e+00
<mgrwt>
<rscale>  2 0.18274078E+03</rscale>
<asrwt>0</asrwt>
<pdfrwt beam="1">  1       21 0.32414669E-01 0.18382095E+03</pdfrwt>
<pdfrwt beam="2">  1       21 0.25530943E-01 0.18382095E+03</pdfrwt>
<totfact> 0.13364231E+05</totfact>
</mgrwt>
</event>
<event>
12      1 +1.4674046e+01 1.73201300e+02 7.54677100e-03 1.17455000e-01
        2 -1    0    0  502    0 +0.0000000000e+00 +0.0000000000e+00 +4.8764903798e+02 4.8764903798e+02 0.0000000000e+00 0.0000e+00 -1.0000e+00
       -2 -1    0    0    0  501 -0.0000000000e+00 -0.0000000000e+00 -9.9058573082e+01 9.9058573082e+01 0.0000000000e+00 0.0000e+00 1.0000e+00
        6  2    1    2  502    0 -1.2926489378e+01 -1.9362542742e+01 +3.7430860865e+02 4.1209318601e+02 1.7079770858e+02 0.0000e+00 0.0000e+00
       24  2    3    3    0    0 -1.8041694862e+01 +2.6178162393e+00 +7.1607201739e+01 1.0851529937e+02 7.9470894937e+01 0.0000e+00 0.0000e+00
       -6  2    1    2    0  501 +1.2926489378e+01 +1.9362542742e+01 +1.4281856249e+01 1.7461442505e+02 1.7246513801e+02 0.0000e+00 0.0000e+00
      -24  2    5    5    0    0 -5.8162629040e+01 +2.7004065093e+01 +8.0380631979e+00 1.0268994679e+02 7.9802905738e+01 0.0000e+00 0.0000e+00
        5  1    3    3  502    0 +5.1152054838e+00 -2.1980358981e+01 +3.0270140691e+02 3.0357788664e+02 4.7000000000e+00 0.0000e+00 -1.0000e+00
      -13  1    4    4    0    0 -4.8548064175e+01 +3.6678350175e+00 +5.6091013139e+01 7.4273611086e+01 0.0000000000e+00 0.0000e+00 1.0000e+00
       14  1    4    4    0    0 +3.0506369313e+01 -1.0500187782e+00 +1.5516188601e+01 3.4241688288e+01 0.0000000000e+00 0.0000e+00 -1.0000e+00
       -5  1    5    5    0  501 +7.1089118418e+01 -7.6415223508e+00 +6.2437930508e+00 7.1924478260e+01 4.7000000000e+00 0.0000e+00 1.0000e+00
       13  1    6    6    0    0 +1.1532466819e+01 +3.0471299421e+01 +1.7979871319e+00 3.2630210497e+01 0.0000000000e+00 0.0000e+00 -1.0000e+00
      -14  1    6    6    0    0 -6.9695095859e+01 -3.4672343283e+00 +6.2400760660e+00 7.0059736297e+01 0.0000000000e+00 0.0000e+00 1.0000e+00
<mgrwt>
<rscale>  2 0.17320126E+03</rscale>
<asrwt>0</asrwt>
<pdfrwt beam="1">  1        2 0.75022927E-01 0.17320126E+03</pdfrwt>
<pdfrwt beam="2">  1       -2 0.15239781E-01 0.17320126E+03</pdfrwt>
<totfact> 0.21080319E+03</totfact>
</mgrwt>
</event>
<event>
14      3 +1.4674046e+01 3.91721100e+02 7.54677100e-03 1.04685000e-01
       21 -1    0    0  504  502 +0.0000000000e+00 +0.0000000000e+00 +2.6820101108e+03 2.6820101108e+03 0.0000000000e+00 0.0000e+00 1.0000e+00
       21 -1    0    0  501  503 -0.0000000000e+00 -0.0000000000e+00 -1.6541486968e+02 1.6541486968e+02 0.0000000000e+00 0.0000e+00 -1.0000e+00
        6  2    1    2  501    0 +2.8288397266e+02 +2.5910234107e+02 +1.9466741056e+02 4.6385444676e+02 1.7351709399e+02 0.0000e+00 0.0000e+00
       24  2    3    3    0    0 +1.8332361378e+02 +2.0743740685e+02 +2.0141160508e+02 3.5138620836e+02 7.9169486779e+01 0.0000e+00 0.0000e+00
       -6  2    1    2    0  502 -2.5163703734e+02 -3.3463984371e+01 +1.2680185514e+03 1.3053248253e+03 1.7765364074e+02 0.0000e+00 0.0000e+00
      -24  2    5    5    0    0 -1.3476856299e+02 +1.7739766837e+01 +4.4761108842e+02 4.7457852292e+02 7.9948877640e+01 0.0000e+00 0.0000e+00
        5  1    3    3  501    0 +9.9560358879e+01 +5.1664934224e+01 -6.7441945212e+00 1.1246823840e+02 4.7000000000e+00 0.0000e+00 -1.0000e+00
      -13  1    4    4    0    0 +1.2139092466e+02 +7.7684180978e+01 +1.0365269744e+02 1.7752315413e+02 0.0000000000e+00 0.0000e+00 1.0000e+00
       14  1    4    4    0    0 +6.1932689121e+01 +1.2975322587e+02 +9.7758907637e+01 1.7386305424e+02 0.0000000000e+00 0.0000e+00 -1.0000e+00
       -5  1    5    5    0  505 -8.9591112845e+01 -3.7379807160e+01 +6.8939812821e+02 6.9621525885e+02 4.7000000000e+00 0.0000e+00 1.0000e+00
       13  1    6    6    0    0 -4.5461287185e+01 -2.6819264061e+01 +1.0203982536e+02 1.1488310370e+02 0.0000000000e+00 0.0000e+00 -1.0000e+00
      -14  1    6    6    0    0 -8.9307275807e+01 +4.4559030899e+01 +3.4557126307e+02 3.5969541921e+02 0.0000000000e+00 0.0000e+00 1.0000e+00
       21  1    1    2  504  503 -3.1246935326e+01 -2.2563835670e+02 +1.0539092792e+03 1.0782457084e+03 0.0000000000e+00 0.0000e+00 1.0000e+00
       21  1    5    5  505  502 -2.7277361502e+01 -1.3823944048e+01 +1.3100933475e+02 1.3453104352e+02 0.0000000000e+00 0.0000e+00 -1.0000e+00
<mgrwt>
<rscale>  4 0.39125564E+03</rscale>
<asrwt>0</asrwt>
<pdfrwt beam="1">  1       21 0.41261691E+00 0.39172112E+03</pdfrwt>
<pdfrwt beam="2">  1       21 0.25448443E-01 0.39172112E+03</pdfrwt>
<totfact> 0.83249281E+01</totfact>
</mgrwt>
</event>
<event>
12      1 +1.4674046e+01 2.46465100e+02 7.54677100e-03 1.11607500e-01
       21 -1    0    0  503  502 +0.0000000000e+00 +0.0000000000e+00 +1.9343323649e+03 1.9343323649e+03 0.0000000000e+00 0.0000e+00 1.0000e+00
       21 -1    0    0  501  503 -0.0000000000e+00 -0.0000000000e+00 -3.5922996824e+01 3.5922996824e+01 0.0000000000e+00 0.0000e+00 1.0000e+00
        6  2    1    2  501    0 -1.4614871761e+02 +9.0629093663e+01 +1.3085870949e+03 1.3310094392e+03 1.7208388119e+02 0.0000e+00 0.0000e+00
       24  2    3    3    0    0 -6.1875467581e+01 +4.6645607588e+01 +1.0370062787e+03 1.0432339062e+03 8.3370106785e+01 0.0000e+00 0.0000e+00
       -6  2    1    2    0  502 +1.4614871761e+02 -9.0629093663e+01 +5.8982227322e+02 6.3924592252e+02 1.7655581323e+02 0.0000e+00 0.0000e+00
      -24  2    5    5    0    0 +7.6573932912e+00 -6.1222782221e+01 +1.9018906240e+02 2.1524902246e+02 7.9708202078e+01 0.0000e+00 0.0000e+00
        5  1    3    3  501    0 -8.4273250030e+01 +4.3983486074e+01 +2.7158081616e+02 2.8777553305e+02 4.7000000000e+00 0.0000e+00 -1.0000e+00
      -13  1    4    4    0    0 +1.5091720009e+01 +2.6233385479e+01 +1.7899059018e+02 1.8153121467e+02 0.0000000000e+00 0.0000e+00 1.0000e+00
       14  1    4    4    0    0 -7.6967187590e+01 +2.0412222109e+01 +8.5801568851e+02 8.6170269149e+02 0.0000000000e+00 0.0000e+00 -1.0000e+00
       -5  1    5    5    0  502 +1.3849132432e+02 -2.9406311441e+01 +3.9963321082e+02 4.2399690006e+02 4.7000000000e+00 0.0000e+00 1.0000e+00
       13  1    6    6    0    0 -2.0204489307e+01 -3.2541093943e+00 +1.1271146189e+02 1.1455428520e+02 0.0000000000e+00 0.0000e+00 -1.0000e+00
      -14  1    6    6    0    0 +2.7861882598e+01 -5.7968672827e+01 +7.7477600510e+01 1.0069473726e+02 0.0000000000e+00 0.0000e+00 1.0000e+00
<mgrwt>
<rscale>  2 0.24566533E+03</rscale>
<asrwt>0</asrwt>
<pdfrwt beam="1">  1       21 0.29758951E+00 0.24646508E+03</pdfrwt>
<pdfrwt beam="2">  1       21 0.55266164E-02 0.24646508E+03</pdfrwt>
<totfact> 0.75839921E+03</totfact>
</mgrwt>
</event>
<event>
12      1 +1.4674046e+01 1.81020200e+02 7.54677100e-03 1.16700100e-01
       21 -1    0    0  503  502 +0.0000000000e+00 +0.0000000000e+00 +7.5125850879e+01 7.5125850879e+01 0.0000000000e+00 0.0000e+00 -1.0000e+00
       21 -1    0    0  501  503 -0.0000000000e+00 -0.0000000000e+00 -4.3994226658e+02 4.3994226658e+02 0.0000000000e+00 0.0000e+00 -1.0000e+00
        6  2    1    2  501    0 -5.0026900264e+01 -8.7450892071e+00 -1.5377136538e+02 2.3751616518e+02 1.7375019014e+02 0.0000e+00 0.0000e+00
       24  2    3    3    0    0 -4.2557342533e+01 -7.2395404209e+01 -9.1604846635e+01 1.4810742430e+02 8.0573812443e+01 0.0000e+00 0.0000e+00
       -6  2    1    2    0  502 +5.0026900264e+01 +8.7450892071e+00 -2.1104505032e+02 2.7755195228e+02 1.7296215082e+02 0.0000e+00 0.0000e+00
      -24  2    5    5    0    0 +2.6920312106e+01 -1.4576235789e+01 -2.7524115990e+01 9.1058461902e+01 8.1221282121e+01 0.0000e+00 0.0000e+00
        5  1    3    3  501    0 -7.4695577313e+00 +6.3650315002e+01 -6.2166518742e+01 8.9408740876e+01 4.7000000000e+00 0.0000e+00 -1.0000e+00
      -13  1    4    4    0    0 -6.2724626014e+01 -7.2434991863e+01 -7.0846355587e+01 1.1916548517e+02 0.0000000000e+00 0.0000e+00 1.0000e+00
       14  1    4    4    0    0 +2.0167283482e+01 +3.9587653955e-02 -2.0758491048e+01 2.8941939134e+01 0.0000000000e+00 0.0000e+00 -1.0000e+00
       -5  1    5    5    0  502 +2.3106588158e+01 +2.3321324996e+01 -1.8352093433e+02 1.8649349038e+02 4.7000000000e+00 0.0000e+00 1.0000e+00
       13  1    6    6    0    0 -1.8165662658e+01 -5.8738524194e-01 -3.8516356641e+01 4.2589271538e+01 0.0000000000e+00 0.0000e+00 -1.0000e+00
      -14  1    6    6    0    0 +4.5085974764e+01 -1.3988850547e+01 +1.0992240652e+01 4.8469190364e+01 0.0000000000e+00 0.0000e+00 1.0000e+00
<mgrwt>
<rscale>  2 0.18083079E+03</rscale>
<asrwt>0</asrwt>
<pdfrwt beam="1">  1       21 0.11557823E-01 0.18102015E+03</pdfrwt>
<pdfrwt beam="2">  1       21 0.67683425E-01 0.18102015E+03</pdfrwt>
<totfact> 0.12572497E+05</totfact>
</mgrwt>
</event>
<event>
12      1 +1.4674046e+01 3.11961300e+02 7.54677100e-03 1.07951300e-01
       21 -1    0    0  503  502 +0.0000000000e+00 +0.0000000000e+00 +7.5943503494e+02 7.5943503494e+02 0.0000000000e+00 0.0000e+00 -1.0000e+00
       21 -1    0    0  501  503 -0.0000000000e+00 -0.0000000000e+00 -2.3384515543e+02 2.3384515543e+02 0.0000000000e+00 0.0000e+00 1.0000e+00
        6  2    1    2  501    0 +5.1360652551e+01 +2.5456130205e+02 -7.1462674070e+01 3.2004182411e+02 1.7285971846e+02 0.0000e+00 0.0000e+00
       24  2    3    3    0    0 +2.8276010593e+00 +2.1003763514e+02 -3.2144277463e+00 2.2508011010e+02 8.0789355209e+01 0.0000e+00 0.0000e+00
       -6  2    1    2    0  502 -5.1360652551e+01 -2.5456130205e+02 +5.9705255358e+02 6.7323836626e+02 1.7128564722e+02 0.0000e+00 0.0000e+00
      -24  2    5    5    0    0 -9.4781918404e+01 -1.4615402151e+02 +3.3134984767e+02 3.8296683351e+02 8.0785295414e+01 0.0000e+00 0.0000e+00
        5  1    3    3  501    0 +4.8533051492e+01 +4.4523666910e+01 -6.8248246324e+01 9.4961714014e+01 4.7000000000e+00 0.0000e+00 -1.0000e+00
      -13  1    4    4    0    0 -3.2845499297e+01 +1.4071026318e+02 -1.8363004966e+01 1.4565508896e+02 0.0000000000e+00 0.0000e+00 1.0000e+00
       14  1    4    4    0    0 +3.5673100356e+01 +6.9327371959e+01 +1.5148577220e+01 7.9425021143e+01 0.0000000000e+00 0.0000e+00 -1.0000e+00
       -5  1    5    5    0  502 +4.3421265853e+01 -1.0840728053e+02 +2.6570270591e+02 2.9027153276e+02 4.7000000000e+00 0.0000e+00 1.0000e+00
       13  1    6    6    0    0 -3.2240380477e+01 -4.7007470529e+01 +1.9496678768e+02 2.0312851281e+02 0.0000000000e+00 0.0000e+00 -1.0000e+00
      -14  1    6    6    0    0 -6.2541537927e+01 -9.9146550983e+01 +1.3638305999e+02 1.7983832069e+02 0.0000000000e+00 0.0000e+00 1.0000e+00
<mgrwt>
<rscale>  2 0.31174372E+03</rscale>
<asrwt>0</asrwt>
<pdfrwt beam="1">  1       21 0.11683616E+00 0.31196130E+03</pdfrwt>
<pdfrwt beam="2">  1       21 0.35976178E-01 0.31196130E+03</pdfrwt>
<totfact> 0.38828050E+03</totfact>
</mgrwt>
</event>
<event>
14      3 +1.4674046e+01 1.79461700e+02 7.54677100e-03 1.16843500e-01
       21 -1    0    0  504  503 +0.0000000000e+00 +0.0000000000e+00 +1.5179598897e+02 1.5179598897e+02 0.0000000000e+00 0.0000e+00 -1.0000e+00
        2 -1    0    0  501    0 -0.0000000000e+00 -0.0000000000e+00 -2.6207503327e+03 2.6207503327e+03 0.0000000000e+00 0.0000e+00 1.0000e+00
        6  2    1    2  501    0 +1.6778965612e+01 -3.7478048605e+01 -2.5652300352e+02 3.1208362439e+02 1.7293351168e+02 0.0000e+00 0.0000e+00
       24  2    3    3    0    0 -1.6877396475e+01 +7.3213308841e+00 -2.3920859547e+02 2.5324814327e+02 8.1088972918e+01 0.0000e+00 0.0000e+00
       -6  2    1    2    0  503 +1.2031299993e+02 +2.9388188239e+01 +1.0938674850e+01 2.1336825159e+02 1.7339974804e+02 0.0000e+00 0.0000e+00
      -24  2    5    5    0    0 +1.3102316440e+02 +3.4595732319e+00 +5.3477340601e+01 1.6219571225e+02 7.9174395227e+01 0.0000e+00 0.0000e+00
        5  1    3    3  501    0 +3.3656362087e+01 -4.4799379489e+01 -1.7314408054e+01 5.8835481113e+01 4.7000000000e+00 0.0000e+00 -1.0000e+00
      -13  1    4    4    0    0 +2.6126592845e+01 -1.5914060511e+01 -5.8129680401e+01 6.5688019601e+01 0.0000000000e+00 0.0000e+00 1.0000e+00
       14  1    4    4    0    0 -4.3003989320e+01 +2.3235391395e+01 -1.8107891507e+02 1.8756012367e+02 0.0000000000e+00 0.0000e+00 -1.0000e+00
       -5  1    5    5    0  503 -1.0710164462e+01 +2.5928615007e+01 -4.2538665751e+01 5.1172539343e+01 4.7000000000e+00 0.0000e+00 1.0000e+00
       13  1    6    6    0    0 +6.3734506642e+01 +4.0257799752e+01 +3.5985845703e+01 8.3532980725e+01 0.0000000000e+00 0.0000e+00 -1.0000e+00
      -14  1    6    6    0    0 +6.7288657753e+01 -3.6798226521e+01 +1.7491494898e+01 7.8662731526e+01 0.0000000000e+00 0.0000e+00 1.0000e+00
       21  1    1    2  504  502 -5.6401165602e+01 -5.1449455977e+01 -1.2596321651e+02 1.4729178495e+02 0.0000000000e+00 0.0000e+00 -1.0000e+00
        2  1    1    2  502    0 -8.0690799943e+01 +5.9539316343e+01 -2.0974067985e+03 2.0998026607e+03 0.0000000000e+00 0.0000e+00 1.0000e+00
<mgrwt>
<rscale>  4 0.17934896E+03</rscale>
<asrwt>0</asrwt>
<pdfrwt beam="1">  1       21 0.23353229E-01 0.17946167E+03</pdfrwt>
<pdfrwt beam="2">  1        2 0.40319235E+00 0.17946167E+03</pdfrwt>
<totfact> 0.78558296E+02</totfact>
</mgrwt>
</event>
<event>
13      2 +1.4674046e+01 2.05006000e+02 7.54677100e-03 1.14571400e-01
       21 -1    0    0  501  503 +0.0000000000e+00 +0.0000000000e+00 +1.6389744754e+02 1.6389744754e+02 0.0000000000e+00 0.0000e+00 1.0000e+00
        2 -1    0    0  503    0 -0.0000000000e+00 -0.0000000000e+00 -2.1491567915e+03 2.1491567915e+03 0.0000000000e+00 0.0000e+00 1.0000e+00
       -6  2    1    2    0  502 -7.3593571378e+01 +4.2207503543e+01 -1.0568718787e+03 1.0742750999e+03 1.7289110803e+02 0.0000e+00 0.0000e+00
      -24  2    3    3    0    0 -9.5646228355e+01 +6.3517697466e+01 -5.9220647117e+02 6.0857511603e+02 8.0451652992e+01 0.0000e+00 0.0000e+00
        6  2    1    2  501    0 +7.6732335084e+01 -8.1594734131e+01 +8.6706245254e+01 2.2291672378e+02 1.7212884967e+02 0.0000e+00 0.0000e+00
       24  2    5    5    0    0 +1.1373886056e+02 -8.2376207281e+01 +4.6665859481e+01 1.6818632892e+02 7.9916023852e+01 0.0000e+00 0.0000e+00
        5  1    5    5  501    0 -3.7006525477e+01 +7.8147315010e-01 +4.0040385773e+01 5.4730394855e+01 4.7000000000e+00 0.0000e+00 -1.0000e+00
      -13  1    6    6    0    0 +4.5953498002e+01 -5.0700374337e+01 -1.6362280234e+01 7.0356066909e+01 0.0000000000e+00 0.0000e+00 1.0000e+00
       14  1    6    6    0    0 +6.7785362560e+01 -3.1675832944e+01 +6.3028139715e+01 9.7830262015e+01 0.0000000000e+00 0.0000e+00 -1.0000e+00
       -5  1    3    3    0  502 +2.2052656977e+01 -2.1310193923e+01 -4.6466540754e+02 4.6569998390e+02 4.7000000000e+00 0.0000e+00 1.0000e+00
       13  1    4    4    0    0 -5.9490477169e+01 +5.7722034011e+01 -2.2923731818e+02 2.4376361117e+02 0.0000000000e+00 0.0000e+00 -1.0000e+00
      -14  1    4    4    0    0 -3.6155751187e+01 +5.7956634554e+00 -3.6296915299e+02 3.6481150486e+02 0.0000000000e+00 0.0000e+00 1.0000e+00
        2  1    1    2  502    0 -3.1387637062e+00 +3.9387230588e+01 -1.0150937105e+03 1.0158624153e+03 0.0000000000e+00 0.0000e+00 1.0000e+00
<mgrwt>
<rscale>  3 0.20484518E+03</rscale>
<asrwt>0</asrwt>
<pdfrwt beam="1">  1       21 0.25214994E-01 0.20500598E+03</pdfrwt>
<pdfrwt beam="2">  1        2 0.33063948E+00 0.20500598E+03</pdfrwt>
<totfact> 0.11903069E+03</totfact>
</mgrwt>
</event>
<event>
13      2 +1.4674046e+01 1.74427300e+02 7.54677100e-03 1.17362500e-01
       21 -1    0    0  504  502 +0.0000000000e+00 +0.0000000000e+00 +5.3034940756e+01 5.3034940756e+01 0.0000000000e+00 0.0000e+00 1.0000e+00
       21 -1    0    0  502  503 -0.0000000000e+00 -0.0000000000e+00 -6.3968296248e+02 6.3968296248e+02 0.0000000000e+00 0.0000e+00 1.0000e+00
       -6  2    1    2    0  503 -2.5320419522e+00 -2.0659097517e+00 -4.0894442219e+02 4.4459019030e+02 1.7439672489e+02 0.0000e+00 0.0000e+00
      -24  2    3    3    0    0 -2.7130520683e+01 +6.2577433565e+01 -2.5487299725e+02 2.7564066833e+02 7.9784290227e+01 0.0000e+00 0.0000e+00
        6  2    1    2  504    0 +2.5320419522e+00 +2.0659097517e+00 -1.7770359953e+02 2.4812771293e+02 1.7314188811e+02 0.0000e+00 0.0000e+00
       24  2    5    5    0    0 -5.6456991982e+01 +2.3692555004e+01 -1.2477207230e+02 1.6083162287e+02 8.0932143059e+01 0.0000e+00 0.0000e+00
        5  1    5    5  501    0 +2.0675186030e+01 -2.2108736943e+01 -1.8523712791e+01 3.5797730405e+01 4.7000000000e+00 0.0000e+00 -1.0000e+00
      -13  1    6    6    0    0 -3.4576757986e+01 +4.5189826099e+01 -1.1555236282e+02 1.2880225592e+02 0.0000000000e+00 0.0000e+00 1.0000e+00
       14  1    6    6    0    0 -2.1880233996e+01 -2.1497271095e+01 -9.2197094855e+00 3.2029366950e+01 0.0000000000e+00 0.0000e+00 -1.0000e+00
       -5  1    3    3    0  503 +2.4598478731e+01 -6.4643343316e+01 -1.5407142494e+02 1.6894952197e+02 4.7000000000e+00 0.0000e+00 1.0000e+00
       13  1    4    4    0    0 -3.7318580690e+01 +2.4433990961e+01 -5.0029533550e+01 6.7027237794e+01 0.0000000000e+00 0.0000e+00 -1.0000e+00
      -14  1    4    4    0    0 +1.0188060007e+01 +3.8143442603e+01 -2.0484346370e+02 2.0861343053e+02 0.0000000000e+00 0.0000e+00 1.0000e+00
       21  1    5    5  504  501 +3.8313847904e+01 +4.8209169075e-01 -3.4407814437e+01 5.1498359663e+01 0.0000000000e+00 0.0000e+00 -1.0000e+00
<mgrwt>
<rscale>  3 0.17411284E+03</rscale>
<asrwt>0</asrwt>
<pdfrwt beam="1">  1       21 0.81592215E-02 0.17442734E+03</pdfrwt>
<pdfrwt beam="2">  1       21 0.98412765E-01 0.17442734E+03</pdfrwt>
<totfact> 0.99612615E+04</totfact>
</mgrwt>
</event>
<event>
12      1 +1.4674046e+01 2.81064700e+02 7.54677100e-03 1.09514800e-01
       21 -1    0    0  501  502 +0.0000000000e+00 +0.0000000000e+00 +2.0881021279e+02 2.0881021279e+02 0.0000000000e+00 0.0000e+00 1.0000e+00
       21 -1    0    0  502  503 -0.0000000000e+00 -0.0000000000e+00 -4.3814851318e+02 4.3814851318e+02 0.0000000000e+00 0.0000e+00 1.0000e+00
       -6  2    1    2    0  503 -2.0658201844e+02 -7.3334810729e+01 +5.2994007461e+00 2.8082727606e+02 1.7544728702e+02 0.0000e+00 0.0000e+00
      -24  2    3    3    0    0 -1.6737174032e+02 -1.1244794961e+02 +3.2337133165e+01 2.1901779040e+02 7.9153404870e+01 0.0000e+00 0.0000e+00
        6  2    1    2  501    0 +2.0658201844e+02 +7.3334810729e+01 -2.3463770114e+02 3.6613144991e+02 1.7590697259e+02 0.0000e+00 0.0000e+00
       24  2    5    5    0    0 +1.7244116795e+02 -1.7323564646e+01 -1.5636419674e+02 2.4149850808e+02 6.1933069407e+01 0.0000e+00 0.0000e+00
        5  1    5    5  501    0 +3.4140850493e+01 +9.0658375375e+01 -7.8273504404e+01 1.2463294183e+02 4.7000000000e+00 0.0000e+00 -1.0000e+00
      -13  1    6    6    0    0 +7.1081082561e+01 -2.2234130789e+01 -3.2199267607e+01 8.1139815778e+01 0.0000000000e+00 0.0000e+00 1.0000e+00
       14  1    6    6    0    0 +1.0136008539e+02 +4.9105661431e+00 -1.2416492913e+02 1.6035869230e+02 0.0000000000e+00 0.0000e+00 -1.0000e+00
       -5  1    3    3    0  503 -3.9210278115e+01 +3.9113138878e+01 -2.7037732419e+01 6.1809485656e+01 4.7000000000e+00 0.0000e+00 1.0000e+00
       13  1    4    4    0    0 +4.7038021051e+00 -2.0960058334e+01 +7.9613728833e-02 2.1481530159e+01 0.0000000000e+00 0.0000e+00 -1.0000e+00
      -14  1    4    4    0    0 -1.7207554243e+02 -9.1487891272e+01 +3.2257519436e+01 1.9753626025e+02 0.0000000000e+00 0.0000e+00 1.0000e+00
<mgrwt>
<rscale>  2 0.28099284E+03</rscale>
<asrwt>0</asrwt>
<pdfrwt beam="1">  1       21 0.32124648E-01 0.28106474E+03</pdfrwt>
<pdfrwt beam="2">  1       21 0.67407463E-01 0.28106474E+03</pdfrwt>
<totfact> 0.17911903E+04</totfact>
</mgrwt>
</event>
<event>
13      2 +1.4674046e+01 1.73573800e+02 7.54677100e-03 1.17422700e-01
       21 -1    0    0  502  503 +0.0000000000e+00 +0.0000000000e+00 +6.9769515974e+01 6.9769515974e+01 0.0000000000e+00 0.0000e+00 -1.0000e+00
        2 -1    0    0  501    0 -0.0000000000e+00 -0.0000000000e+00 -1.7162966499e+03 1.7162966499e+03 0.0000000000e+00 0.0000e+00 -1.0000e+00
        6  2    1    2  501    0 -1.9341190887e+00 +1.4737250263e+01 -1.4106485194e+02 2.2379808057e+02 1.7310505785e+02 0.0000e+00 0.0000e+00
       24  2    3    3    0    0 -1.3199057570e+01 +5.0015104991e+01 -1.5659124696e+02 1.8336808161e+02 8.0170498819e+01 0.0000e+00 0.0000e+00
       -6  2    1    2    0  503 +1.8095041040e+01 -1.8473435542e+00 -2.3847390892e+02 2.9511108533e+02 1.7288696961e+02 0.0000e+00 0.0000e+00
      -24  2    5    5    0    0 +2.3407134526e+01 +6.3327079057e+01 -1.2399145387e+02 1.6318593149e+02 8.1838589412e+01 0.0000e+00 0.0000e+00
        5  1    3    3  501    0 +1.1264938482e+01 -3.5277854729e+01 +1.5526395024e+01 4.0429998957e+01 4.7000000000e+00 0.0000e+00 -1.0000e+00
      -13  1    4    4    0    0 +2.4638799897e+01 +5.1960155716e+01 -9.2743173444e+01 1.0912481140e+02 0.0000000000e+00 0.0000e+00 1.0000e+00
       14  1    4    4    0    0 -3.7837857467e+01 -1.9450507240e+00 -6.3848073519e+01 7.4243270214e+01 0.0000000000e+00 0.0000e+00 -1.0000e+00
       -5  1    5    5    0  503 -5.3120934862e+00 -6.5174422612e+01 -1.1448245506e+02 1.3192515384e+02 4.7000000000e+00 0.0000e+00 1.0000e+00
       13  1    6    6    0    0 +2.1948462549e+01 -8.1870159684e+00 -6.9275725347e+01 7.3129257900e+01 0.0000000000e+00 0.0000e+00 -1.0000e+00
      -14  1    6    6    0    0 +1.4586719772e+00 +7.1514095026e+01 -5.4715728520e+01 9.0056673594e+01 0.0000000000e+00 0.0000e+00 1.0000e+00
        2  1    1    2  502    0 -1.6160921951e+01 -1.2889906709e+01 -1.2669883731e+03 1.2671570000e+03 0.0000000000e+00 0.0000e+00 -1.0000e+00
<mgrwt>
<rscale>  3 0.17351939E+03</rscale>
<asrwt>0</asrwt>
<pdfrwt beam="1">  1       21 0.10733772E-01 0.17357379E+03</pdfrwt>
<pdfrwt beam="2">  1        2 0.26404564E+00 0.17357379E+03</pdfrwt>
<totfact> 0.97549083E+03</totfact>
</mgrwt>
</event>
<event>
13      3 +1.4674046e+01 2.11333000e+02 7.54677100e-03 1.14072400e-01
       21 -1    0    0  501  503 +0.0000000000e+00 +0.0000000000e+00 +7.9346259150e+02 7.9346259150e+02 0.0000000000e+00 0.0000e+00 -1.0000e+00
        1 -1    0    0  504    0 -0.0000000000e+00 -0.0000000000e+00 -5.4626386902e+02 5.4626386902e+02 0.0000000000e+00 0.0000e+00 1.0000e+00
       -6  2    1    2    0  502 +4.8650789008e+01 +7.8480354490e+01 +3.7138679772e+02 4.1968608746e+02 1.7228520881e+02 0.0000e+00 0.0000e+00
        6  2    1    2  501    0 -5.9565587105e+01 -1.4165340538e+02 +2.5430835788e+02 3.4411839039e+02 1.7358277361e+02 0.0000e+00 0.0000e+00
       24  2    4    4    0    0 -3.6008853410e+01 -4.1672336804e+01 +2.1141376680e+02 2.3270398504e+02 8.0138272274e+01 0.0000e+00 0.0000e+00
        5  1    4    4  501    0 -2.3556733695e+01 -9.9981068573e+01 +4.2894591080e+01 1.1141440535e+02 4.7000000000e+00 0.0000e+00 -1.0000e+00
      -13  1    5    5    0    0 +1.1568580722e+01 +1.3236216245e+01 +1.4411558729e+01 2.2731531084e+01 0.0000000000e+00 0.0000e+00 1.0000e+00
       14  1    5    5    0    0 -4.7577434131e+01 -5.4908553050e+01 +1.9700220807e+02 2.0997245395e+02 0.0000000000e+00 0.0000e+00 -1.0000e+00
       -5  1    3    3    0  502 +4.0506180494e+01 -1.6943382090e+01 +8.5255170742e+01 9.6012306467e+01 4.7000000000e+00 0.0000e+00 1.0000e+00
       13  1    3    3    0    0 -4.6586978155e+01 +8.0737514957e+01 +1.5580377409e+02 1.8155910573e+02 0.0000000000e+00 0.0000e+00 -1.0000e+00
      -14  1    3    3    0    0 +5.4731586669e+01 +1.4686221623e+01 +1.3032785289e+02 1.4211467526e+02 0.0000000000e+00 0.0000e+00 1.0000e+00
       21  1    1    2  504  503 +2.1112548081e+01 +1.8409408234e+01 +9.5594112161e+01 9.9613655077e+01 0.0000000000e+00 0.0000e+00 -1.0000e+00
        1  1    1    2  502    0 -1.0197749984e+01 +4.4763642654e+01 -4.7409054528e+02 4.7630832759e+02 0.0000000000e+00 0.0000e+00 1.0000e+00
<mgrwt>
<rscale>  4 0.21106637E+03</rscale>
<asrwt>0</asrwt>
<pdfrwt beam="1">  1       21 0.12207117E+00 0.21133299E+03</pdfrwt>
<pdfrwt beam="2">  1        1 0.84040595E-01 0.21133299E+03</pdfrwt>
<totfact> 0.22143010E+02</totfact>
</mgrwt>
</event>
<event>
12      2 +1.4674046e+01 2.41679000e+02 7.54677100e-03 1.12862100e-01
       21 -1    0    0  504  502 +0.0000000000e+00 +0.0000000000e+00 +1.5120799622e+02 1.5120799622e+02 0.0000000000e+00 0.0000e+00 -1.0000e+00
       21 -1    0    0  501  503 -0.0000000000e+00 -0.0000000000e+00 -5.1617304254e+02 5.1617304254e+02 0.0000000000e+00 0.0000e+00 -1.0000e+00
       24  2    1    2    0    0 -1.5467755309e+00 +1.4007133100e+02 -8.2368455219e+01 1.7705917255e+02 7.0306599173e+01 0.0000e+00 0.0000e+00
       -6  2    1    2    0  502 -7.1081537934e+00 -8.1703031009e+01 -7.6066314957e+01 2.0633815974e+02 1.7338812176e+02 0.0000e+00 0.0000e+00
      -24  2    4    4    0    0 -2.3875791934e+01 +1.9052369388e+01 -1.2962468042e+01 8.6184134032e+01 7.9540135537e+01 0.0000e+00 0.0000e+00
        5  1    1    2  501    0 -2.2147870408e+01 -7.4569593392e+01 -3.5186858570e+00 7.8010406821e+01 4.7000000000e+00 0.0000e+00 -1.0000e+00
      -13  1    3    3    0    0 -3.3683398763e+01 +5.9195523572e+01 -4.8784432379e+01 8.3777098337e+01 0.0000000000e+00 0.0000e+00 1.0000e+00
       14  1    3    3    0    0 +3.2136623232e+01 +8.0875807429e+01 -3.3584022840e+01 9.3282074217e+01 0.0000000000e+00 0.0000e+00 -1.0000e+00
       -5  1    4    4    0  502 +1.6767638141e+01 -1.0075540040e+02 -6.3103846915e+01 1.2015402571e+02 4.7000000000e+00 0.0000e+00 1.0000e+00
       13  1    5    5    0    0 -3.9254769714e+01 -1.7358884097e+01 -1.7594367888e+01 4.6387817191e+01 0.0000000000e+00 0.0000e+00 -1.0000e+00
      -14  1    5    5    0    0 +1.5378977780e+01 +3.6411253485e+01 +4.6318998452e+00 3.9796316841e+01 0.0000000000e+00 0.0000e+00 1.0000e+00
       21  1    1    2  504  503 +3.0802799732e+01 +1.6201293399e+01 -2.0301159028e+02 2.0597329965e+02 0.0000000000e+00 0.0000e+00 -1.0000e+00
<mgrwt>
<rscale>  3 0.22720702E+03</rscale>
<asrwt>0</asrwt>
<pdfrwt beam="1">  1       21 0.23262769E-01 0.24167902E+03</pdfrwt>
<pdfrwt beam="2">  1       21 0.79411237E-01 0.24167902E+03</pdfrwt>
<totfact> 0.23652996E+04</totfact>
</mgrwt>
</event>
<event>
12      1 +1.4674046e+01 2.08964300e+02 7.54677100e-03 1.14258500e-01
       21 -1    0    0  501  502 +0.0000000000e+00 +0.0000000000e+00 +6.0457739503e+02 6.0457739503e+02 0.0000000000e+00 0.0000e+00 1.0000e+00
       21 -1    0    0  502  503 -0.0000000000e+00 -0.0000000000e+00 -7.3716390864e+01 7.3716390864e+01 0.0000000000e+00 0.0000e+00 1.0000e+00
        6  2    1    2  501    0 +1.0395184802e+02 +4.8377093685e+01 +3.1825823350e+02 3.8018972524e+02 1.7352116321e+02 0.0000e+00 0.0000e+00
       24  2    3    3    0    0 +8.9259507510e+01 +9.9667222347e+01 +2.4579180367e+02 2.9007859595e+02 7.6362072959e+01 0.0000e+00 0.0000e+00
       -6  2    1    2    0  503 -1.0395184802e+02 -4.8377093685e+01 +2.1260277066e+02 2.9810406066e+02 1.7469906407e+02 0.0000e+00 0.0000e+00
      -24  2    5    5    0    0 -3.4151784338e+01 +2.9799172952e+01 +5.0753174693e+01 1.0522855866e+02 8.0267239482e+01 0.0000e+00 0.0000e+00
        5  1    3    3  501    0 +1.4692340515e+01 -5.1290128662e+01 +7.2466429830e+01 9.0111129281e+01 4.7000000000e+00 0.0000e+00 -1.0000e+00
      -13  1    4    4    0    0 +2.6503715055e+01 +1.2688077605e+01 +1.2559096755e+02 1.2898265525e+02 0.0000000000e+00 0.0000e+00 1.0000e+00
       14  1    4    4    0    0 +6.2755792454e+01 +8.6979144742e+01 +1.2020083612e+02 1.6109594070e+02 0.0000000000e+00 0.0000e+00 -1.0000e+00
       -5  1    5    5    0  503 -6.9800063686e+01 -7.8176266637e+01 +1.6184959597e+02 1.9287550200e+02 4.7000000000e+00 0.0000e+00 1.0000e+00
       13  1    6    6    0    0 -2.6423842249e+01 -2.2210542701e+01 +3.7570906483e+01 5.1020590552e+01 0.0000000000e+00 0.0000e+00 -1.0000e+00
      -14  1    6    6    0    0 -7.7279420896e+00 +5.2009715653e+01 +1.3182268210e+01 5.4207968108e+01 0.0000000000e+00 0.0000e+00 1.0000e+00
<mgrwt>
<rscale>  2 0.20871796E+03</rscale>
<asrwt>0</asrwt>
<pdfrwt beam="1">  1       21 0.93011904E-01 0.20896433E+03</pdfrwt>
<pdfrwt beam="2">  1       21 0.11340984E-01 0.20896433E+03</pdfrwt>
<totfact> 0.62682421E+04</totfact>
</mgrwt>
</event>
<event>
13      2 +1.4674046e+01 2.35002500e+02 7.54677100e-03 1.12340400e-01
       21 -1    0    0  501  502 +0.0000000000e+00 +0.0000000000e+00 +4.9935981539e+02 4.9935981539e+02 0.0000000000e+00 0.0000e+00 -1.0000e+00
       21 -1    0    0  504  503 -0.0000000000e+00 -0.0000000000e+00 -4.6907953184e+02 4.6907953184e+02 0.0000000000e+00 0.0000e+00 -1.0000e+00
       -6  2    1    2    0  503 -5.6858664950e+01 -8.7701460219e+01 +1.6175241074e+02 2.5821622630e+02 1.7200966030e+02 0.0000e+00 0.0000e+00
      -24  2    3    3    0    0 +8.5398153105e+00 -9.4252828375e+01 +1.4441793938e+02 1.9008065891e+02 7.9483278594e+01 0.0000e+00 0.0000e+00
        6  2    1    2  501    0 -2.2683635056e+01 +1.6989888572e+02 -3.7137562530e+02 4.4444674378e+02 1.7387603147e+02 0.0000e+00 0.0000e+00
       24  2    5    5    0    0 -3.2070883264e+01 +1.6442096284e+02 -2.0098417338e+02 2.7364432882e+02 8.0148525709e+01 0.0000e+00 0.0000e+00
        5  1    5    5  501    0 +9.3872482072e+00 +5.4779228816e+00 -1.7039145192e+02 1.7080241495e+02 4.7000000000e+00 0.0000e+00 -1.0000e+00
      -13  1    6    6    0    0 -5.1201835444e+01 +6.3561106509e+01 -1.0602380766e+02 1.3380093424e+02 0.0000000000e+00 0.0000e+00 1.0000e+00
       14  1    6    6    0    0 +1.9130952180e+01 +1.0085985633e+02 -9.4960365724e+01 1.3984339458e+02 0.0000000000e+00 0.0000e+00 -1.0000e+00
       -5  1    3    3    0  503 -6.5398480260e+01 +6.5513681558e+00 +1.7334471362e+01 6.8135567382e+01 4.7000000000e+00 0.0000e+00 1.0000e+00
       13  1    4    4    0    0 -3.2301836174e+01 -5.9449118546e+01 +9.8256795615e+01 1.1929796394e+02 0.0000000000e+00 0.0000e+00 -1.0000e+00
      -14  1    4    4    0    0 +4.0841651484e+01 -3.4803709829e+01 +4.6161143766e+01 7.0782694972e+01 0.0000000000e+00 0.0000e+00 1.0000e+00
       21  1    1    2  504  502 +7.9542300006e+01 -8.2197425497e+01 +2.3990349811e+02 2.6577637716e+02 0.0000000000e+00 0.0000e+00 -1.0000e+00
<mgrwt>
<rscale>  3 0.23465733E+03</rscale>
<asrwt>0</asrwt>
<pdfrwt beam="1">  1       21 0.76824587E-01 0.23500247E+03</pdfrwt>
<pdfrwt beam="2">  1       21 0.72166082E-01 0.23500247E+03</pdfrwt>
<totfact> 0.25216083E+03</totfact>
</mgrwt>
</event>
<event>
14      3 +1.4674046e+01 1.82160000e+02 7.54677100e-03 1.16572900e-01
       -2 -1    0    0    0  501 -0.0000000000e+00 +0.0000000000e+00 +1.1714814763e+02 1.1714814763e+02 0.0000000000e+00 0.0000e+00 1.0000e+00
        2 -1    0    0  503    0 +0.0000000000e+00 -0.0000000000e+00 -1.7322618302e+03 1.7322618302e+03 0.0000000000e+00 0.0000e+00 -1.0000e+00
        6  2    1    2  502    0 +3.9943761894e+01 -9.8027814207e+01 -6.3529501653e+01 2.1165788700e+02 1.7192471339e+02 0.0000e+00 0.0000e+00
       24  2    3    3    0    0 +8.5635603432e+01 -7.4021468454e+01 -1.3155717105e+01 1.3938301453e+02 8.0261556680e+01 0.0000e+00 0.0000e+00
       -6  2    1    2    0  504 -7.3913639580e+01 +1.3963551011e+02 -1.3259299858e+03 1.3439958165e+03 1.5255532031e+02 0.0000e+00 0.0000e+00
      -24  2    5    5    0    0 -5.1201150668e+01 +9.7305882929e+01 -5.5376486283e+02 5.7032358513e+02 8.0768036745e+01 0.0000e+00 0.0000e+00
        5  1    3    3  502    0 -4.5691841539e+01 -2.4006345753e+01 -5.0373784548e+01 7.2274872462e+01 4.7000000000e+00 0.0000e+00 -1.0000e+00
      -13  1    4    4    0    0 +6.4356443542e+01 -8.4973893313e+01 -2.9259528267e+01 1.1053702712e+02 0.0000000000e+00 0.0000e+00 1.0000e+00
       14  1    4    4    0    0 +2.1279159890e+01 +1.0952424859e+01 +1.6103811162e+01 2.8845987414e+01 0.0000000000e+00 0.0000e+00 -1.0000e+00
       -5  1    5    5    0  504 -2.2712488912e+01 +4.2329627182e+01 -7.7216512292e+02 7.7367223134e+02 4.7000000000e+00 0.0000e+00 1.0000e+00
       13  1    6    6    0    0 -6.6331073885e+00 +9.0029260786e+01 -4.0029099731e+02 4.1034393920e+02 0.0000000000e+00 0.0000e+00 -1.0000e+00
      -14  1    6    6    0    0 -4.4568043280e+01 +7.2766221425e+00 -1.5347386552e+02 1.5997964592e+02 0.0000000000e+00 0.0000e+00 1.0000e+00
       21  1    1    2  503  502 +3.5518253021e+01 -8.2810875908e+01 -2.3482250213e+02 2.5151698744e+02 0.0000000000e+00 0.0000e+00 1.0000e+00
       21  1    1    2  504  501 -1.5483753341e+00 +4.1203180005e+01 +9.1683069506e+00 4.2239286938e+01 0.0000000000e+00 0.0000e+00 -1.0000e+00
<mgrwt>
<rscale>  4 0.18216002E+03</rscale>
<asrwt>0</asrwt>
<pdfrwt beam="2">  1        2 0.26650180E+00 0.18216002E+03</pdfrwt>
<pdfrwt beam="1">  1       -2 0.18022793E-01 0.18216002E+03</pdfrwt>
<totfact> 0.26542351E+02</totfact>
</mgrwt>
</event>
<event>
14      3 +1.4674046e+01 2.46270700e+02 7.54677100e-03 1.11593300e-01
       21 -1    0    0  504  502 +0.0000000000e+00 +0.0000000000e+00 +3.0300433140e+02 3.0300433140e+02 0.0000000000e+00 0.0000e+00 1.0000e+00
       21 -1    0    0  505  503 -0.0000000000e+00 -0.0000000000e+00 -8.7807091337e+02 8.7807091337e+02 0.0000000000e+00 0.0000e+00 1.0000e+00
       -6  2    1    2    0  503 -4.9086668466e+01 +2.2449269150e+02 -4.9584934545e+02 5.7315050573e+02 1.7270917544e+02 0.0000e+00 0.0000e+00
      -24  2    3    3    0    0 -3.9934930873e+01 +1.0602584408e+02 -3.8935910761e+02 4.1352466512e+02 8.1029967688e+01 0.0000e+00 0.0000e+00
        6  2    1    2  501    0 -6.9159492951e+01 -1.1441335882e+02 -2.2804888223e+02 3.1695789731e+02 1.7487871179e+02 0.0000e+00 0.0000e+00
       24  2    5    5    0    0 -4.7692800119e+01 -4.1434026733e+01 -3.4162367799e+01 1.0862913720e+02 8.1497486585e+01 0.0000e+00 0.0000e+00
        5  1    5    5  501    0 -2.1466692833e+01 -7.2979332090e+01 -1.9388651443e+02 2.0832876011e+02 4.7000000000e+00 0.0000e+00 -1.0000e+00
      -13  1    6    6    0    0 -2.3293054063e+01 -5.7385974912e+01 -4.6018942681e+01 7.7158664904e+01 0.0000000000e+00 0.0000e+00 1.0000e+00
       14  1    6    6    0    0 -2.4399746056e+01 +1.5951948180e+01 +1.1856574882e+01 3.1470472291e+01 0.0000000000e+00 0.0000e+00 -1.0000e+00
       -5  1    3    3    0  503 -9.1517375936e+00 +1.1846684741e+02 -1.0649023784e+02 1.5962584061e+02 4.7000000000e+00 0.0000e+00 1.0000e+00
       13  1    4    4    0    0 +1.6246191987e+01 +4.4394901372e+01 -7.8153900515e+01 9.1339357276e+01 0.0000000000e+00 0.0000e+00 -1.0000e+00
      -14  1    4    4    0    0 -5.6181122859e+01 +6.1630942712e+01 -3.1120520710e+02 3.2218530784e+02 0.0000000000e+00 0.0000e+00 1.0000e+00
       21  1    1    2  504  501 -1.2322870690e+01 +2.0573226274e+01 +9.5853520811e+01 9.8807936084e+01 0.0000000000e+00 0.0000e+00 1.0000e+00
       21  1    1    2  505  502 +1.3056903211e+02 -1.3065255895e+02 +5.2978124895e+01 1.9215890565e+02 0.0000000000e+00 0.0000e+00 1.0000e+00
<mgrwt>
<rscale>  4 0.24588588E+03</rscale>
<asrwt>0</asrwt>
<pdfrwt beam="1">  1       21 0.46616052E-01 0.24627074E+03</pdfrwt>
<pdfrwt beam="2">  1       21 0.13508783E+00 0.24627074E+03</pdfrwt>
<totfact> 0.16495070E+03</totfact>
</mgrwt>
</event>
<event>
14      3 +1.4674046e+01 1.84210200e+02 7.54677100e-03 1.16386600e-01
        2 -1    0    0  504    0 -0.0000000000e+00 +0.0000000000e+00 +2.2520444159e+03 2.2520444159e+03 0.0000000000e+00 0.0000e+00 1.0000e+00
       21 -1    0    0  502  503 +0.0000000000e+00 -0.0000000000e+00 -5.2283104281e+02 5.2283104281e+02 0.0000000000e+00 0.0000e+00 1.0000e+00
        6  2    1    2  504    0 +8.7053779179e+00 -6.1857877614e+01 -3.6494723458e+02 4.0905883008e+02 1.7389784878e+02 0.0000e+00 0.0000e+00
       24  2    3    3    0    0 -4.7286474201e+01 +1.0259325046e+00 -1.8587852793e+02 2.0785378296e+02 8.0095597662e+01 0.0000e+00 0.0000e+00
       -6  2    1    2    0  503 +3.8808422589e+01 +5.3313218557e+01 -7.1547294356e+01 1.9957073091e+02 1.7424427786e+02 0.0000e+00 0.0000e+00
      -24  2    5    5    0    0 -3.3455099622e+01 -1.5731569508e+00 -2.6293035899e+00 8.5525519212e+01 7.8651018338e+01 0.0000e+00 0.0000e+00
        5  1    3    3  501    0 +2.9893013562e+01 -4.6424714873e+01 -7.9080653171e+01 9.6564414340e+01 4.7000000000e+00 0.0000e+00 -1.0000e+00
      -13  1    4    4    0    0 -5.7122499054e+01 -5.8742057478e+00 -1.8715953337e+02 1.9577072591e+02 0.0000000000e+00 0.0000e+00 1.0000e+00
       14  1    4    4    0    0 +9.8360248528e+00 +6.9001382524e+00 +1.2810054372e+00 1.2083057053e+01 0.0000000000e+00 0.0000e+00 -1.0000e+00
       -5  1    5    5    0  503 +7.2263522211e+01 +5.4886375508e+01 -6.8917990766e+01 1.1404521169e+02 4.7000000000e+00 0.0000e+00 1.0000e+00
       13  1    6    6    0    0 -2.4376200108e+01 +8.2378756527e+00 -3.9029854757e+01 4.6748168834e+01 0.0000000000e+00 0.0000e+00 -1.0000e+00
      -14  1    6    6    0    0 -9.0788995141e+00 -9.8110326035e+00 +3.6400551167e+01 3.8777350379e+01 0.0000000000e+00 0.0000e+00 1.0000e+00
       21  1    3    3  504  501 +2.6098838556e+01 -1.6459095245e+01 -9.9988053479e+01 1.0464063278e+02 0.0000000000e+00 0.0000e+00 -1.0000e+00
        2  1    1    2  502    0 -4.7513800507e+01 +8.5446590570e+00 +2.1657079020e+03 2.1662458977e+03 0.0000000000e+00 0.0000e+00 1.0000e+00
<mgrwt>
<rscale>  4 0.18412826E+03</rscale>
<asrwt>0</asrwt>
<pdfrwt beam="2">  1       21 0.80435546E-01 0.18421023E+03</pdfrwt>
<pdfrwt beam="1">  1        2 0.34646837E+00 0.18421023E+03</pdfrwt>
<totfact> 0.97526123E+01</totfact>
</mgrwt>
</event>
<event>
13      2 +1.4674046e+01 2.23184200e+02 7.54677100e-03 1.13164600e-01
       21 -1    0    0  503  502 +0.0000000000e+00 +0.0000000000e+00 +6.2439866867e+01 6.2439866867e+01 0.0000000000e+00 0.0000e+00 1.0000e+00
       21 -1    0    0  501  503 -0.0000000000e+00 -0.0000000000e+00 -1.0643636551e+03 1.0643636551e+03 0.0000000000e+00 0.0000e+00 -1.0000e+00
        6  2    1    2  501    0 -9.2439347604e+01 +1.1640402935e+02 -2.4912285226e+02 3.3711818053e+02 1.7173101376e+02 0.0000e+00 0.0000e+00
       24  2    3    3    0    0 -6.0338967896e+01 +1.2921154869e+02 -2.5377494538e+02 3.0193013001e+02 8.0147770666e+01 0.0000e+00 0.0000e+00
       -6  2    1    2    0  504 +7.1816247322e+01 -1.0197296574e+02 -6.8704783355e+02 7.1927910351e+02 1.7254461461e+02 0.0000e+00 0.0000e+00
      -24  2    5    5    0    0 +6.0203082293e+00 -9.4562615315e+01 -5.8065667039e+02 5.9387898989e+02 8.0942902390e+01 0.0000e+00 0.0000e+00
        5  1    3    3  501    0 -3.2100379707e+01 -1.2807519336e+01 +4.6520931161e+00 3.5188050518e+01 4.7000000000e+00 0.0000e+00 -1.0000e+00
      -13  1    4    4    0    0 -1.0751947133e+01 +4.2351415783e+01 -2.0799302116e+01 4.8392744854e+01 0.0000000000e+00 0.0000e+00 1.0000e+00
       14  1    4    4    0    0 -4.9587020764e+01 +8.6860132905e+01 -2.3297564326e+02 2.5353738515e+02 0.0000000000e+00 0.0000e+00 -1.0000e+00
       -5  1    5    5    0  504 +6.5795939092e+01 -7.4103504298e+00 -1.0639116317e+02 1.2540011361e+02 4.7000000000e+00 0.0000e+00 1.0000e+00
       13  1    6    6    0    0 +4.0035835179e+01 -7.4878903647e+01 -3.7385292490e+02 3.8337413550e+02 0.0000000000e+00 0.0000e+00 -1.0000e+00
      -14  1    6    6    0    0 -3.4015526950e+01 -1.9683711668e+01 -2.0680374548e+02 2.1050485440e+02 0.0000000000e+00 0.0000e+00 1.0000e+00
       21  1    1    2  504  502 +2.0623100282e+01 -1.4431063607e+01 -6.5753102374e+01 7.0406237890e+01 0.0000000000e+00 0.0000e+00 1.0000e+00
<mgrwt>
<rscale>  3 0.22302693E+03</rscale>
<asrwt>0</asrwt>
<pdfrwt beam="1">  1       21 0.96061340E-02 0.22318420E+03</pdfrwt>
<pdfrwt beam="2">  1       21 0.16374824E+00 0.22318420E+03</pdfrwt>
<totfact> 0.20176670E+04</totfact>
</mgrwt>
</event>
<event>
14      3 +1.4674046e+01 2.57306200e+02 7.54677100e-03 1.12156400e-01
       21 -1    0    0  504  503 +0.0000000000e+00 +0.0000000000e+00 +5.0677554924e+02 5.0677554924e+02 0.0000000000e+00 0.0000e+00 -1.0000e+00
        2 -1    0    0  501    0 -0.0000000000e+00 -0.0000000000e+00 -3.3174956428e+02 3.3174956428e+02 0.0000000000e+00 0.0000e+00 1.0000e+00
        6  2    1    2  501    0 -1.4663688336e+02 +6.1361257506e+01 +5.6267303333e+01 2.4142633220e+02 1.7278045309e+02 0.0000e+00 0.0000e+00
       24  2    3    3    0    0 -9.6276424285e+01 +1.0370315635e+02 +1.8349872065e+01 1.6534194595e+02 8.3532908340e+01 0.0000e+00 0.0000e+00
       -6  2    1    2    0  503 -5.5673013257e+01 -3.9357538389e+01 +2.7775214465e+02 3.3446094754e+02 1.7340522292e+02 0.0000e+00 0.0000e+00
      -24  2    5    5    0    0 +3.6589825920e+01 -2.5564555282e+01 +1.3906103328e+02 1.6724853098e+02 8.1496860627e+01 0.0000e+00 0.0000e+00
        5  1    3    3  501    0 -5.0360459078e+01 -4.2341898847e+01 +3.7917431268e+01 7.6084386246e+01 4.7000000000e+00 0.0000e+00 -1.0000e+00
      -13  1    4    4    0    0 -1.0684065711e+02 +9.1129449168e+01 +3.1954807088e+01 1.4401601374e+02 0.0000000000e+00 0.0000e+00 1.0000e+00
       14  1    4    4    0    0 +1.0564232828e+01 +1.2573707185e+01 -1.3604935024e+01 2.1325932210e+01 0.0000000000e+00 0.0000e+00 -1.0000e+00
       -5  1    5    5    0  503 -9.2262839176e+01 -1.3792983107e+01 +1.3869111138e+02 1.6721241656e+02 4.7000000000e+00 0.0000e+00 1.0000e+00
       13  1    6    6    0    0 +8.7459890773e+00 +2.8165762685e+01 +2.7466863556e+01 4.0301750659e+01 0.0000000000e+00 0.0000e+00 -1.0000e+00
      -14  1    6    6    0    0 +2.7843836843e+01 -5.3730317967e+01 +1.1159416972e+02 1.2694678032e+02 0.0000000000e+00 0.0000e+00 1.0000e+00
       21  1    1    2  504  502 +2.9692637298e+01 +2.7499010683e-01 -4.7371228417e+00 3.0069397435e+01 0.0000000000e+00 0.0000e+00 -1.0000e+00
        2  1    1    2  502    0 +1.7261725932e+02 -2.2278709224e+01 -1.5425634018e+02 2.3256843635e+02 0.0000000000e+00 0.0000e+00 1.0000e+00
<mgrwt>
<rscale>  4 0.23735960E+03</rscale>
<asrwt>0</asrwt>
<pdfrwt beam="1">  1       21 0.77965469E-01 0.25730618E+03</pdfrwt>
<pdfrwt beam="2">  1        2 0.51038394E-01 0.25730618E+03</pdfrwt>
<totfact> 0.17289983E+03</totfact>
</mgrwt>
</event>
<event>
12      1 +1.4674046e+01 1.78295800e+02 7.54677100e-03 1.16956100e-01
       21 -1    0    0  501  502 +0.0000000000e+00 +0.0000000000e+00 +5.5299627174e+01 5.5299627174e+01 0.0000000000e+00 0.0000e+00 1.0000e+00
       21 -1    0    0  502  503 -0.0000000000e+00 -0.0000000000e+00 -5.8202716968e+02 5.8202716968e+02 0.0000000000e+00 0.0000e+00 1.0000e+00
       -6  2    1    2    0  503 +4.0786174128e+01 +7.6555533878e-01 -3.0150729376e+02 3.5007505521e+02 1.7315252817e+02 0.0000e+00 0.0000e+00
      -24  2    3    3    0    0 -1.4521438871e+01 +5.5698248731e+01 -1.6590945354e+02 1.9359695089e+02 8.1490278683e+01 0.0000e+00 0.0000e+00
        6  2    1    2  501    0 -4.0786174128e+01 -7.6555533878e-01 -2.2522024874e+02 2.8725174165e+02 1.7356642694e+02 0.0000e+00 0.0000e+00
       24  2    5    5    0    0 -3.6365503599e+01 +4.0442182103e+01 -9.1770966541e+01 1.4743607416e+02 1.0177163515e+02 0.0000e+00 0.0000e+00
        5  1    5    5  501    0 -4.4206705296e+00 -4.1207737441e+01 -1.3344928220e+02 1.3981566748e+02 4.7000000000e+00 0.0000e+00 -1.0000e+00
      -13  1    6    6    0    0 -3.6044892187e+01 +1.4603395963e+01 +1.1838566303e+01 4.0652737651e+01 0.0000000000e+00 0.0000e+00 1.0000e+00
       14  1    6    6    0    0 -3.2061141134e-01 +2.5838786140e+01 -1.0360953284e+02 1.0678333651e+02 0.0000000000e+00 0.0000e+00 -1.0000e+00
       -5  1    3    3    0  503 +5.5307612999e+01 -5.4932693392e+01 -1.3559784022e+02 1.5647810432e+02 4.7000000000e+00 0.0000e+00 1.0000e+00
       13  1    4    4    0    0 -2.8812320298e+01 +3.7744801789e+01 -3.0905185252e+01 5.6656423630e+01 0.0000000000e+00 0.0000e+00 -1.0000e+00
      -14  1    4    4    0    0 +1.4290881427e+01 +1.7953446941e+01 -1.3500426829e+02 1.3694052726e+02 0.0000000000e+00 0.0000e+00 1.0000e+00
<mgrwt>
<rscale>  2 0.17819502E+03</rscale>
<asrwt>0</asrwt>
<pdfrwt beam="1">  1       21 0.85076346E-02 0.17829583E+03</pdfrwt>
<pdfrwt beam="2">  1       21 0.89542646E-01 0.17829583E+03</pdfrwt>
<totfact> 0.11522297E+05</totfact>
</mgrwt>
</event>
<event>
12      1 +1.4674046e+01 2.08294000e+02 7.54677100e-03 1.14501700e-01
       21 -1    0    0  501  502 +0.0000000000e+00 +0.0000000000e+00 +3.6202695034e+02 3.6202695034e+02 0.0000000000e+00 0.0000e+00 1.0000e+00
       21 -1    0    0  502  503 -0.0000000000e+00 -0.0000000000e+00 -1.3022664648e+02 1.3022664648e+02 0.0000000000e+00 0.0000e+00 1.0000e+00
       -6  2    1    2    0  503 +9.8085845469e+01 -1.2012246848e+01 +2.6651311425e+01 1.9989681370e+02 1.7170706617e+02 0.0000e+00 0.0000e+00
      -24  2    3    3    0    0 +4.3800855084e+01 +5.1001618309e+01 -8.9167914781e+00 1.0931653259e+02 8.5737478095e+01 0.0000e+00 0.0000e+00
        6  2    1    2  501    0 -9.8085845469e+01 +1.2012246848e+01 +2.0514899243e+02 2.9235678311e+02 1.8336098926e+02 0.0000e+00 0.0000e+00
       24  2    5    5    0    0 -1.0644871053e+02 -3.5683435521e+01 +2.0046662087e+02 2.4348112218e+02 8.0570188223e+01 0.0000e+00 0.0000e+00
        5  1    5    5  501    0 +8.3628650563e+00 +4.7695682369e+01 +4.6823715554e+00 4.8875660936e+01 4.7000000000e+00 0.0000e+00 -1.0000e+00
      -13  1    6    6    0    0 -2.5024348005e+00 +1.9365958386e+01 +4.0108228723e+01 4.4609108211e+01 0.0000000000e+00 0.0000e+00 1.0000e+00
       14  1    6    6    0    0 -1.0394627573e+02 -5.5049393907e+01 +1.6035839215e+02 1.9887201397e+02 0.0000000000e+00 0.0000e+00 -1.0000e+00
       -5  1    3    3    0  503 +5.4284990386e+01 -6.3013865157e+01 +3.5568102903e+01 9.0580281118e+01 4.7000000000e+00 0.0000e+00 1.0000e+00
       13  1    4    4    0    0 -9.7721442324e+00 +4.9929110450e+01 +1.1175981997e+01 5.2089475394e+01 0.0000000000e+00 0.0000e+00 -1.0000e+00
      -14  1    4    4    0    0 +5.3572999316e+01 +1.0725078591e+00 -2.0092773475e+01 5.7227057191e+01 0.0000000000e+00 0.0000e+00 1.0000e+00
<mgrwt>
<rscale>  2 0.20570049E+03</rscale>
<asrwt>0</asrwt>
<pdfrwt beam="1">  1       21 0.55696454E-01 0.20829397E+03</pdfrwt>
<pdfrwt beam="2">  1       21 0.20034869E-01 0.20829397E+03</pdfrwt>
<totfact> 0.69391464E+04</totfact>
</mgrwt>
</event>
<event>
13      2 +1.4674046e+01 3.78666900e+02 7.54677100e-03 1.05147400e-01
       21 -1    0    0  501  502 +0.0000000000e+00 +0.0000000000e+00 +5.8463223092e+02 5.8463223092e+02 0.0000000000e+00 0.0000e+00 -1.0000e+00
       21 -1    0    0  502  503 -0.0000000000e+00 -0.0000000000e+00 -9.3790103806e+02 9.3790103806e+02 0.0000000000e+00 0.0000e+00 1.0000e+00
       -6  2    1    2    0  504 +2.4364090244e+02 -2.6311907453e+02 -7.6840357233e+02 8.6532551380e+02 1.7248668976e+02 0.0000e+00 0.0000e+00
      -24  2    3    3    0    0 +8.9416360203e+01 -4.4732730241e+01 -2.0543634016e+02 2.4208238364e+02 8.0021796921e+01 0.0000e+00 0.0000e+00
        6  2    1    2  501    0 -2.4349551789e+02 +2.2976724474e+02 +4.6407648551e+02 5.9798227355e+02 1.7358790595e+02 0.0000e+00 0.0000e+00
       24  2    5    5    0    0 -2.5754655725e+02 +1.9580719278e+02 +3.6372564815e+02 4.9100985937e+02 6.4215644415e+01 0.0000e+00 0.0000e+00
        5  1    5    5  501    0 +1.4051039357e+01 +3.3960051968e+01 +1.0035083736e+02 1.0697241418e+02 4.7000000000e+00 0.0000e+00 -1.0000e+00
      -13  1    6    6    0    0 -2.1039035540e+02 +1.8775290279e+02 +3.1267424181e+02 4.2104683307e+02 0.0000000000e+00 0.0000e+00 1.0000e+00
       14  1    6    6    0    0 -4.7156201844e+01 +8.0542899901e+00 +5.1051406341e+01 6.9963026299e+01 0.0000000000e+00 0.0000e+00 -1.0000e+00
       -5  1    3    3    0  504 +1.5422454224e+02 -2.1838634429e+02 -5.6296723217e+02 6.2324313016e+02 4.7000000000e+00 0.0000e+00 1.0000e+00
       13  1    4    4    0    0 -1.2735937513e+01 -4.1389170503e+00 -4.9617771862e+01 5.1393170979e+01 0.0000000000e+00 0.0000e+00 -1.0000e+00
      -14  1    4    4    0    0 +1.0215229772e+02 -4.0593813191e+01 -1.5581856830e+02 1.9068921266e+02 0.0000000000e+00 0.0000e+00 1.0000e+00
       21  1    1    2  504  503 -1.4538454879e-01 +3.3351829784e+01 -4.8941720316e+01 5.9225481628e+01 0.0000000000e+00 0.0000e+00 -1.0000e+00
<mgrwt>
<rscale>  3 0.37854091E+03</rscale>
<asrwt>0</asrwt>
<pdfrwt beam="1">  1       21 0.89943421E-01 0.37866687E+03</pdfrwt>
<pdfrwt beam="2">  1       21 0.14429247E+00 0.37866687E+03</pdfrwt>
<totfact> 0.29797213E+02</totfact>
</mgrwt>
</event>
<event>
12      1 +1.4674046e+01 1.82420500e+02 7.54677100e-03 1.16568200e-01
       21 -1    0    0  501  502 +0.0000000000e+00 +0.0000000000e+00 +1.4794227140e+02 1.4794227140e+02 0.0000000000e+00 0.0000e+00 -1.0000e+00
       21 -1    0    0  502  503 -0.0000000000e+00 -0.0000000000e+00 -3.0407617468e+02 3.0407617468e+02 0.0000000000e+00 0.0000e+00 -1.0000e+00
       -6  2    1    2    0  503 -4.8858867984e+01 -2.6762649944e+01 -1.9425617874e+02 2.6648211877e+02 1.7370615485e+02 0.0000e+00 0.0000e+00
      -24  2    3    3    0    0 +3.5879458644e+01 +1.1054932384e+01 -8.0726656260e+01 1.1977903084e+02 8.0129121523e+01 0.0000e+00 0.0000e+00
        6  2    1    2  501    0 +4.8858867984e+01 +2.6762649944e+01 +3.8122275452e+01 1.8553632732e+02 1.7282069452e+02 0.0000e+00 0.0000e+00
       24  2    5    5    0    0 +6.0681512657e+01 -3.3553840770e+01 +5.5817708159e+01 1.2140308852e+02 8.2552935443e+01 0.0000e+00 0.0000e+00
        5  1    5    5  501    0 -1.1822644673e+01 +6.0316490714e+01 -1.7695432707e+01 6.4133238791e+01 4.7000000000e+00 0.0000e+00 -1.0000e+00
      -13  1    6    6    0    0 +1.0144543346e+01 -5.2775140288e+01 +2.7687247559e+01 6.0454204729e+01 0.0000000000e+00 0.0000e+00 1.0000e+00
       14  1    6    6    0    0 +5.0536969310e+01 +1.9221299518e+01 +2.8130460600e+01 6.0948883795e+01 0.0000000000e+00 0.0000e+00 -1.0000e+00
       -5  1    3    3    0  503 -8.4738326628e+01 -3.7817582328e+01 -1.1352952248e+02 1.4670308793e+02 4.7000000000e+00 0.0000e+00 1.0000e+00
       13  1    4    4    0    0 +1.9809960652e+01 -3.4337019215e+01 -4.3965050259e+01 5.9197897546e+01 0.0000000000e+00 0.0000e+00 -1.0000e+00
      -14  1    4    4    0    0 +1.6069497992e+01 +4.5391951599e+01 -3.6761606001e+01 6.0581133296e+01 0.0000000000e+00 0.0000e+00 1.0000e+00
<mgrwt>
<rscale>  2 0.18220944E+03</rscale>
<asrwt>0</asrwt>
<pdfrwt beam="1">  1       21 0.22760350E-01 0.18242055E+03</pdfrwt>
<pdfrwt beam="2">  1       21 0.46780949E-01 0.18242055E+03</pdfrwt>
<totfact> 0.79527697E+04</totfact>
</mgrwt>
</event>
<event>
13      2 +1.4674046e+01 2.05813300e+02 7.54677100e-03 1.14562000e-01
       21 -1    0    0  503  502 +0.0000000000e+00 +0.0000000000e+00 +5.7257396134e+02 5.7257396134e+02 0.0000000000e+00 0.0000e+00 -1.0000e+00
       21 -1    0    0  501  503 -0.0000000000e+00 -0.0000000000e+00 -1.1279418554e+02 1.1279418554e+02 0.0000000000e+00 0.0000e+00 -1.0000e+00
        6  2    1    2  501    0 +1.5905727451e+01 -9.9433464956e+01 +4.4429369602e+01 2.0818465826e+02 1.7671128128e+02 0.0000e+00 0.0000e+00
       24  2    3    3    0    0 -4.9346829081e+01 -2.0414035791e+01 +5.5037670301e+00 9.8461101737e+01 8.2537595713e+01 0.0000e+00 0.0000e+00
       -6  2    1    2    0  504 -5.9118967220e+00 +1.2108294034e+02 +3.7075439659e+02 4.2661293881e+02 1.7275343123e+02 0.0000e+00 0.0000e+00
      -24  2    5    5    0    0 -6.0800393177e+01 +5.5329975459e+01 +2.7290481305e+02 2.9648672918e+02 8.1665473708e+01 0.0000e+00 0.0000e+00
        5  1    3    3  501    0 +6.5252556533e+01 -7.9019429165e+01 +3.8925602572e+01 1.0972355652e+02 4.7000000000e+00 0.0000e+00 -1.0000e+00
      -13  1    4    4    0    0 +3.3690205885e+00 +2.6523705570e+01 -4.6890002460e+00 2.7144870238e+01 0.0000000000e+00 0.0000e+00 1.0000e+00
       14  1    4    4    0    0 -5.2715849670e+01 -4.6937741361e+01 +1.0192767276e+01 7.1316231499e+01 0.0000000000e+00 0.0000e+00 -1.0000e+00
       -5  1    5    5    0  504 +5.4888496455e+01 +6.5752964880e+01 +9.7849583542e+01 1.3012620963e+02 4.7000000000e+00 0.0000e+00 1.0000e+00
       13  1    6    6    0    0 -3.7268194935e+01 +6.0409975942e+01 +2.5928842449e+02 2.6882851527e+02 0.0000000000e+00 0.0000e+00 -1.0000e+00
      -14  1    6    6    0    0 -2.3532198242e+01 -5.0800004833e+00 +1.3616388559e+01 2.7658213905e+01 0.0000000000e+00 0.0000e+00 1.0000e+00
       21  1    1    2  504  502 -9.9938307294e+00 -2.1649475383e+01 +4.4596009602e+01 5.0570549823e+01 0.0000000000e+00 0.0000e+00 -1.0000e+00
<mgrwt>
<rscale>  3 0.20496105E+03</rscale>
<asrwt>0</asrwt>
<pdfrwt beam="1">  1       21 0.88088300E-01 0.20581334E+03</pdfrwt>
<pdfrwt beam="2">  1       21 0.17352952E-01 0.20581334E+03</pdfrwt>
<totfact> 0.32922120E+04</totfact>
</mgrwt>
</event>
<event>
12      1 +1.4674046e+01 1.99842300e+02 7.54677100e-03 1.14987200e-01
        2 -1    0    0  502    0 +0.0000000000e+00 +0.0000000000e+00 +1.3741935756e+03 1.3741935756e+03 0.0000000000e+00 0.0000e+00 1.0000e+00
       -2 -1    0    0    0  501 -0.0000000000e+00 -0.0000000000e+00 -2.9075890839e+01 2.9075890839e+01 0.0000000000e+00 0.0000e+00 -1.0000e+00
        6  2    1    2  502    0 +9.0850742763e+01 -3.8665062080e+01 +6.9045613644e+02 7.1903824563e+02 1.7474975780e+02 0.0000e+00 0.0000e+00
       24  2    3    3    0    0 +4.9498332335e+01 +3.8748648038e+01 +4.8577140775e+02 4.9628090564e+02 7.9808107899e+01 0.0000e+00 0.0000e+00
       -6  2    1    2    0  501 -9.0850742763e+01 +3.8665062080e+01 +6.5466154832e+02 6.8423122080e+02 1.7274772411e+02 0.0000e+00 0.0000e+00
      -24  2    5    5    0    0 -4.7892802507e+01 -3.4864365485e+01 +2.2749293371e+02 2.4863154604e+02 8.0965216505e+01 0.0000e+00 0.0000e+00
        5  1    3    3  502    0 +4.1352410428e+01 -7.7413710118e+01 +2.0468472869e+02 2.2275733999e+02 4.7000000000e+00 0.0000e+00 -1.0000e+00
      -13  1    4    4    0    0 -1.8901545673e+01 +2.4727348332e+01 +1.2513340154e+02 1.2894602888e+02 0.0000000000e+00 0.0000e+00 1.0000e+00
       14  1    4    4    0    0 +6.8399878008e+01 +1.4021299706e+01 +3.6063800621e+02 3.6733487676e+02 0.0000000000e+00 0.0000e+00 -1.0000e+00
       -5  1    5    5    0  501 -4.2957940256e+01 +7.3529427565e+01 +4.2716861461e+02 4.3559967477e+02 4.7000000000e+00 0.0000e+00 1.0000e+00
       13  1    6    6    0    0 -9.3881060107e+00 -3.3568291319e+01 +2.5991692080e+01 4.3480280286e+01 0.0000000000e+00 0.0000e+00 -1.0000e+00
      -14  1    6    6    0    0 -3.8504696496e+01 -1.2960741658e+00 +2.0150124163e+02 2.0515126575e+02 0.0000000000e+00 0.0000e+00 1.0000e+00
<mgrwt>
<rscale>  2 0.19984233E+03</rscale>
<asrwt>0</asrwt>
<pdfrwt beam="1">  1        2 0.21141435E+00 0.19984233E+03</pdfrwt>
<pdfrwt beam="2">  1       -2 0.44732150E-02 0.19984233E+03</pdfrwt>
<totfact> 0.36885422E+03</totfact>
</mgrwt>
</event>
<event>
14      3 +1.4674046e+01 2.59049400e+02 7.54677100e-03 1.10776200e-01
       21 -1    0    0  501  502 +0.0000000000e+00 +0.0000000000e+00 +1.0701978361e+03 1.0701978361e+03 0.0000000000e+00 0.0000e+00 1.0000e+00
       21 -1    0    0  502  503 -0.0000000000e+00 -0.0000000000e+00 -2.9469453202e+02 2.9469453202e+02 0.0000000000e+00 0.0000e+00 -1.0000e+00
        6  2    1    2  501    0 -1.5119917294e+02 -1.6182266700e+02 +9.1515348069e+02 9.5735908738e+02 1.7315531617e+02 0.0000e+00 0.0000e+00
       24  2    3    3    0    0 -2.6780563236e+01 -1.2569850408e+02 +4.6582386536e+02 4.8970094429e+02 7.9358860901e+01 0.0000e+00 0.0000e+00
       -6  2    1    2    0  504 +2.4712121459e+01 +6.8656763630e+01 +8.0988174630e+00 1.8849607361e+02 1.7361088325e+02 0.0000e+00 0.0000e+00
      -24  2    5    5    0    0 +4.6960469543e+01 -8.4579317689e+00 -3.0123704397e+01 9.9475197311e+01 8.1921029070e+01 0.0000e+00 0.0000e+00
        5  1    3    3  501    0 -1.2441860970e+02 -3.6124162921e+01 +4.4932961534e+02 4.6765814310e+02 4.7000000000e+00 0.0000e+00 -1.0000e+00
      -13  1    4    4    0    0 -3.3834198635e+01 -1.0217828028e+01 +1.0694871479e+02 1.1263740321e+02 0.0000000000e+00 0.0000e+00 1.0000e+00
       14  1    4    4    0    0 +7.0536353989e+00 -1.1548067605e+02 +3.5887515057e+02 3.7706354108e+02 0.0000000000e+00 0.0000e+00 -1.0000e+00
       -5  1    5    5    0  504 -2.2248348083e+01 +7.7114695399e+01 +3.8222521860e+01 8.9020876294e+01 4.7000000000e+00 0.0000e+00 1.0000e+00
       13  1    6    6    0    0 +6.4372302263e+01 -3.9229872306e+00 -1.2208244165e-01 6.4491844690e+01 0.0000000000e+00 0.0000e+00 -1.0000e+00
      -14  1    6    6    0    0 -1.7411832720e+01 -4.5349445383e+00 -3.0001621955e+01 3.4983352621e+01 0.0000000000e+00 0.0000e+00 1.0000e+00
       21  1    1    2  504  505 +9.8470345712e+01 +7.7921742437e+01 -9.5253488107e+01 1.5761165542e+02 0.0000000000e+00 0.0000e+00 -1.0000e+00
       21  1    1    2  505  503 +2.8016705769e+01 +1.5244160930e+01 -5.2495506021e+01 6.1425551662e+01 0.0000000000e+00 0.0000e+00 -1.0000e+00
<mgrwt>
<rscale>  4 0.25897307E+03</rscale>
<asrwt>0</asrwt>
<pdfrwt beam="1">  1       21 0.16464582E+00 0.25904938E+03</pdfrwt>
<pdfrwt beam="2">  1       21 0.45337621E-01 0.25904938E+03</pdfrwt>
<totfact> 0.10218697E+03</totfact>
</mgrwt>
</event>
<event>
13      2 +1.4674046e+01 1.78601200e+02 7.54677100e-03 1.16944300e-01
       21 -1    0    0  501  502 +0.0000000000e+00 +0.0000000000e+00 +2.7350043717e+02 2.7350043717e+02 0.0000000000e+00 0.0000e+00 1.0000e+00
       21 -1    0    0  504  503 -0.0000000000e+00 -0.0000000000e+00 -4.8604299249e+02 4.8604299249e+02 0.0000000000e+00 0.0000e+00 1.0000e+00
       -6  2    1    2    0  503 +1.8808425791e+01 -3.4809489657e+01 -4.1376233694e+02 4.5059531370e+02 1.7398680353e+02 0.0000e+00 0.0000e+00
      -24  2    3    3    0    0 -2.1125735408e+01 +3.2425350383e+01 -1.3990757686e+02 1.6575539275e+02 8.0018873517e+01 0.0000e+00 0.0000e+00
        6  2    1    2  501    0 -5.0671386853e+00 +4.9827941514e+01 +1.0030308506e+02 2.0599882499e+02 1.7281871246e+02 0.0000e+00 0.0000e+00
       24  2    5    5    0    0 +2.2521992014e+01 -3.2198694174e+01 +2.9092120987e+01 9.3826544548e+01 8.0081664116e+01 0.0000e+00 0.0000e+00
        5  1    5    5  501    0 -2.7589130700e+01 +8.2026635688e+01 +7.1210964075e+01 1.1217228044e+02 4.7000000000e+00 0.0000e+00 -1.0000e+00
      -13  1    6    6    0    0 +6.0743050896e+00 -2.9676030874e+01 -2.3708268859e+01 3.8466166992e+01 0.0000000000e+00 0.0000e+00 1.0000e+00
       14  1    6    6    0    0 +1.6447686925e+01 -2.5226633002e+00 +5.2800389846e+01 5.5360377556e+01 0.0000000000e+00 0.0000e+00 -1.0000e+00
       -5  1    3    3    0  503 +3.9934161199e+01 -6.7234840040e+01 -2.7385476009e+02 2.8483992095e+02 4.7000000000e+00 0.0000e+00 1.0000e+00
       13  1    4    4    0    0 -5.0116875761e+01 +1.3605464167e+01 -1.0197980424e+02 1.1444077230e+02 0.0000000000e+00 0.0000e+00 -1.0000e+00
      -14  1    4    4    0    0 +2.8991140353e+01 +1.8819886215e+01 -3.7927772612e+01 5.1314620445e+01 0.0000000000e+00 0.0000e+00 1.0000e+00
       21  1    1    2  504  502 -1.3741287105e+01 -1.5018451857e+01 +1.0091669656e+02 1.0294929098e+02 0.0000000000e+00 0.0000e+00 -1.0000e+00
<mgrwt>
<rscale>  3 0.17831609E+03</rscale>
<asrwt>0</asrwt>
<pdfrwt beam="1">  1       21 0.42076991E-01 0.17860120E+03</pdfrwt>
<pdfrwt beam="2">  1       21 0.74775844E-01 0.17860120E+03</pdfrwt>
<totfact> 0.87887978E+03</totfact>
</mgrwt>
</event>
<event>
14      3 +1.4674046e+01 1.95346800e+02 7.54677100e-03 1.15374100e-01
       21 -1    0    0  501  502 +0.0000000000e+00 +0.0000000000e+00 +3.8845598404e+02 3.8845598404e+02 0.0000000000e+00 0.0000e+00 1.0000e+00
       21 -1    0    0  504  503 -0.0000000000e+00 -0.0000000000e+00 -1.6364881278e+03 1.6364881278e+03 0.0000000000e+00 0.0000e+00 1.0000e+00
        6  2    1    2  501    0 +3.4648734268e+01 -1.3682248070e+02 -1.1374727260e+03 1.1590820774e+03 1.7235467476e+02 0.0000e+00 0.0000e+00
       24  2    3    3    0    0 -1.8172148035e+01 -1.0253611603e+02 -9.8916165967e+02 9.9788696959e+02 8.0583702161e+01 0.0000e+00 0.0000e+00
       -6  2    1    2    0  505 +1.3582192538e+01 +8.9914865587e+01 +3.4622398250e+02 3.9733378728e+02 1.7243530221e+02 0.0000e+00 0.0000e+00
      -24  2    5    5    0    0 +4.1759347043e+01 +2.6588129452e+01 +2.9831931935e+02 3.1294673675e+02 8.0563465980e+01 0.0000e+00 0.0000e+00
        5  1    3    3  501    0 +5.2820882302e+01 -3.4286364676e+01 -1.4831106629e+02 1.6119510785e+02 4.7000000000e+00 0.0000e+00 -1.0000e+00
      -13  1    4    4    0    0 +1.9967335382e+01 -6.5324138605e+01 -3.5648634452e+02 3.6297169503e+02 0.0000000000e+00 0.0000e+00 1.0000e+00
       14  1    4    4    0    0 -3.8139483416e+01 -3.7211977423e+01 -6.3267531516e+02 6.3491527456e+02 0.0000000000e+00 0.0000e+00 -1.0000e+00
       -5  1    5    5    0  505 -2.8177154506e+01 +6.3326736135e+01 +4.7904663143e+01 8.4387050526e+01 4.7000000000e+00 0.0000e+00 1.0000e+00
       13  1    6    6    0    0 +5.2951087351e+01 +2.4098461986e+01 +1.1140097647e+02 1.2567709051e+02 0.0000000000e+00 0.0000e+00 -1.0000e+00
      -14  1    6    6    0    0 -1.1191740307e+01 +2.4896674650e+00 +1.8691834289e+02 1.8726964624e+02 0.0000000000e+00 0.0000e+00 1.0000e+00
       21  1    1    2  504  502 -2.7169074538e+01 +1.9427447522e+01 -4.0415092022e+02 4.0552872974e+02 0.0000000000e+00 0.0000e+00 1.0000e+00
       21  1    1    2  505  503 -2.1061852267e+01 +2.7480167596e+01 -5.2632480085e+01 6.2999517394e+01 0.0000000000e+00 0.0000e+00 1.0000e+00
<mgrwt>
<rscale>  4 0.19532897E+03</rscale>
<asrwt>0</asrwt>
<pdfrwt beam="1">  1       21 0.59762458E-01 0.19534676E+03</pdfrwt>
<pdfrwt beam="2">  1       21 0.25176741E+00 0.19534676E+03</pdfrwt>
<totfact> 0.16899896E+02</totfact>
</mgrwt>
</event>
<event>
14      3 +1.4674046e+01 1.75699800e+02 7.54677100e-03 1.17203100e-01
        2 -1    0    0  501    0 -0.0000000000e+00 +0.0000000000e+00 +5.1988868860e+02 5.1988868860e+02 0.0000000000e+00 0.0000e+00 -1.0000e+00
       21 -1    0    0  504  503 +0.0000000000e+00 -0.0000000000e+00 -3.0322556315e+02 3.0322556315e+02 0.0000000000e+00 0.0000e+00 1.0000e+00
        6  2    1    2  501    0 -9.6818446775e+01 +4.9265061587e+01 -7.7044258404e+01 2.1772727095e+02 1.7224543196e+02 0.0000e+00 0.0000e+00
       24  2    3    3    0    0 -8.5684092957e+01 -3.0834533253e+01 -3.6452536247e+01 1.2711989357e+02 8.0858813462e+01 0.0000e+00 0.0000e+00
       -6  2    1    2    0  503 -4.7581248503e+01 +2.5798136085e+01 +3.1052657373e+02 3.5991134269e+02 1.7372363850e+02 0.0000e+00 0.0000e+00
      -24  2    5    5    0    0 -5.7678731363e+01 +1.0717451403e+01 +7.5986434017e+01 1.2462310808e+02 7.9468742897e+01 0.0000e+00 0.0000e+00
        5  1    3    3  501    0 -1.1134353818e+01 +8.0099594840e+01 -4.0591722158e+01 9.0607377383e+01 4.7000000000e+00 0.0000e+00 -1.0000e+00
      -13  1    4    4    0    0 -1.1728824159e+01 +7.6401806175e-01 -4.4752075304e+01 4.6269831248e+01 0.0000000000e+00 0.0000e+00 1.0000e+00
       14  1    4    4    0    0 -7.3955268797e+01 -3.1598551315e+01 +8.2995390570e+00 8.0850062317e+01 0.0000000000e+00 0.0000e+00 -1.0000e+00
       -5  1    5    5    0  503 +1.0097482860e+01 +1.5080684682e+01 +2.3454013971e+02 2.3528823461e+02 4.7000000000e+00 0.0000e+00 1.0000e+00
       13  1    6    6    0    0 -2.9833192851e+01 +3.8482803139e+00 +8.8395492761e+01 9.3373399839e+01 0.0000000000e+00 0.0000e+00 -1.0000e+00
      -14  1    6    6    0    0 -2.7845538512e+01 +6.8691710893e+00 -1.2409058744e+01 3.1249708245e+01 0.0000000000e+00 0.0000e+00 1.0000e+00
       21  1    1    2  504  502 +4.7928433044e+00 -9.0754324170e+01 -4.6200814847e+01 1.0195015446e+02 0.0000000000e+00 0.0000e+00 1.0000e+00
        2  1    1    2  502    0 +1.3960685197e+02 +1.5691126497e+01 +2.9381624969e+01 1.4352548364e+02 0.0000000000e+00 0.0000e+00 -1.0000e+00
<mgrwt>
<rscale>  4 0.17569985E+03</rscale>
<asrwt>0</asrwt>
<pdfrwt beam="2">  1       21 0.46650086E-01 0.17569985E+03</pdfrwt>
<pdfrwt beam="1">  1        2 0.79982875E-01 0.17569985E+03</pdfrwt>
<totfact> 0.33059315E+03</totfact>
</mgrwt>
</event>
<event>
13      2 +1.4674046e+01 2.09519900e+02 7.54677100e-03 1.14221000e-01
       21 -1    0    0  504  502 +0.0000000000e+00 +0.0000000000e+00 +7.1854816318e+01 7.1854816318e+01 0.0000000000e+00 0.0000e+00 -1.0000e+00
       21 -1    0    0  501  503 -0.0000000000e+00 -0.0000000000e+00 -8.5126749886e+02 8.5126749886e+02 0.0000000000e+00 0.0000e+00 -1.0000e+00
        6  2    1    2  501    0 +8.0509212210e+01 -8.7612878063e+01 -2.3621477184e+02 3.1463569149e+02 1.7041258835e+02 0.0000e+00 0.0000e+00
       24  2    3    3    0    0 +5.4920286905e+01 -7.1106431488e+01 -5.7402541482e+01 1.3318828974e+02 7.9822968136e+01 0.0000e+00 0.0000e+00
       -6  2    1    2    0  502 -6.2016344328e+01 +1.0490968601e+02 -3.1591758113e+02 3.7980012663e+02 1.7202368714e+02 0.0000e+00 0.0000e+00
      -24  2    5    5    0    0 -9.5687432181e+01 +2.9824257076e+01 -1.8972500662e+02 2.2907448297e+02 8.0212029166e+01 0.0000e+00 0.0000e+00
        5  1    3    3  501    0 +2.5588925305e+01 -1.6506446575e+01 -1.7881223035e+02 1.8144740175e+02 4.7000000000e+00 0.0000e+00 -1.0000e+00
      -13  1    4    4    0    0 +5.3459180367e+01 -8.0829544732e+00 -4.1542097704e+01 6.8183311742e+01 0.0000000000e+00 0.0000e+00 1.0000e+00
       14  1    4    4    0    0 +1.4611065378e+00 -6.3023477015e+01 -1.5860443778e+01 6.5004977995e+01 0.0000000000e+00 0.0000e+00 -1.0000e+00
       -5  1    5    5    0  502 +3.3671087854e+01 +7.5085428930e+01 -1.2619257451e+02 1.5072564366e+02 4.7000000000e+00 0.0000e+00 1.0000e+00
       13  1    6    6    0    0 -4.0748738937e+01 +4.5017799291e+01 -5.1724247959e+01 7.9765028708e+01 0.0000000000e+00 0.0000e+00 -1.0000e+00
      -14  1    6    6    0    0 -5.4938693245e+01 -1.5193542215e+01 -1.3800075867e+02 1.4930945426e+02 0.0000000000e+00 0.0000e+00 1.0000e+00
       21  1    1    2  504  503 -1.8492867883e+01 -1.7296807943e+01 -2.2728032957e+02 2.2868649706e+02 0.0000000000e+00 0.0000e+00 -1.0000e+00
<mgrwt>
<rscale>  3 0.20918893E+03</rscale>
<asrwt>0</asrwt>
<pdfrwt beam="1">  1       21 0.11054587E-01 0.20951990E+03</pdfrwt>
<pdfrwt beam="2">  1       21 0.13096423E+00 0.20951990E+03</pdfrwt>
<totfact> 0.28529949E+04</totfact>
</mgrwt>
</event>
<event>
13      2 +1.4674046e+01 2.57754900e+02 7.54677100e-03 1.10870400e-01
       21 -1    0    0  504  502 +0.0000000000e+00 +0.0000000000e+00 +7.7549743968e+02 7.7549743968e+02 0.0000000000e+00 0.0000e+00 -1.0000e+00
       21 -1    0    0  501  503 -0.0000000000e+00 -0.0000000000e+00 -8.1130251358e+02 8.1130251358e+02 0.0000000000e+00 0.0000e+00 -1.0000e+00
        6  2    1    2  501    0 +1.5121598605e+02 -1.6370395949e+02 +9.1107964264e+01 2.9745358169e+02 1.7467888057e+02 0.0000e+00 0.0000e+00
       24  2    3    3    0    0 +6.5026253096e+00 -7.4630404542e+01 +6.0858876815e+01 1.2478872638e+02 7.9097673324e+01 0.0000e+00 0.0000e+00
       -6  2    1    2    0  502 -1.9980150930e+02 -2.4381968843e+01 +5.3628583854e+02 5.9828225041e+02 1.7269634337e+02 0.0000e+00 0.0000e+00
      -24  2    5    5    0    0 -1.4817272455e+02 -5.2790892565e+00 +5.0970441633e+02 5.3697064115e+02 8.0968218125e+01 0.0000e+00 0.0000e+00
        5  1    3    3  501    0 +1.4471336074e+02 -8.9073554947e+01 +3.0249087448e+01 1.7266485531e+02 4.7000000000e+00 0.0000e+00 -1.0000e+00
      -13  1    4    4    0    0 +2.9906445513e+01 -2.4251957857e+01 +5.7417849613e+01 6.9132932798e+01 0.0000000000e+00 0.0000e+00 1.0000e+00
       14  1    4    4    0    0 -2.3403820203e+01 -5.0378446685e+01 +3.4410272024e+00 5.5655793577e+01 0.0000000000e+00 0.0000e+00 -1.0000e+00
       -5  1    5    5    0  502 -5.1628784749e+01 -1.9102879587e+01 +2.6581422207e+01 6.1311609257e+01 4.7000000000e+00 0.0000e+00 1.0000e+00
       13  1    6    6    0    0 -4.4439730068e+01 +1.1148830041e+00 +5.5918391000e+01 7.1435278572e+01 0.0000000000e+00 0.0000e+00 -1.0000e+00
      -14  1    6    6    0    0 -1.0373299448e+02 -6.3939722606e+00 +4.5378602533e+02 4.6553536258e+02 0.0000000000e+00 0.0000e+00 1.0000e+00
       21  1    1    2  504  503 +4.8585523249e+01 +1.8808592833e+02 -6.6319887670e+02 6.9106412117e+02 0.0000000000e+00 0.0000e+00 -1.0000e+00
<mgrwt>
<rscale>  3 0.25741939E+03</rscale>
<asrwt>0</asrwt>
<pdfrwt beam="1">  1       21 0.11930730E+00 0.25775490E+03</pdfrwt>
<pdfrwt beam="2">  1       21 0.12481577E+00 0.25775490E+03</pdfrwt>
<totfact> 0.23916376E+02</totfact>
</mgrwt>
</event>
<event>
12      2 +1.4674046e+01 7.61612600e+02 7.54677100e-03 9.93222500e-02
       21 -1    0    0  501  502 +0.0000000000e+00 +0.0000000000e+00 +3.3079339522e+03 3.3079339522e+03 0.0000000000e+00 0.0000e+00 -1.0000e+00
       21 -1    0    0  502  503 -0.0000000000e+00 -0.0000000000e+00 -1.2835539417e+02 1.2835539417e+02 0.0000000000e+00 0.0000e+00 -1.0000e+00
      -24  2    1    2    0    0 -3.7693495023e+02 +1.0324332337e+02 +1.4175224826e+03 1.4726141993e+03 8.0519878784e+01 0.0000e+00 0.0000e+00
        6  2    1    2  501    0 +1.3218788708e+02 +1.5086716355e+02 +9.9334775901e+02 1.0283036879e+03 1.7445390735e+02 0.0000e+00 0.0000e+00
       24  2    4    4    0    0 +7.2295412406e+01 +8.4517379806e+01 +3.0493228270e+02 3.3409380589e+02 7.9152763416e+01 0.0000e+00 0.0000e+00
        5  1    4    4  501    0 +5.9892474677e+01 +6.6349783744e+01 +6.8841547631e+02 6.9420988206e+02 4.7000000000e+00 0.0000e+00 -1.0000e+00
      -13  1    5    5    0    0 -8.7740159158e+00 +1.0241999570e+01 +4.5697109225e+00 1.4239528377e+01 0.0000000000e+00 0.0000e+00 1.0000e+00
       14  1    5    5    0    0 +8.1069428322e+01 +7.4275380235e+01 +3.0036257178e+02 3.1985427751e+02 0.0000000000e+00 0.0000e+00 -1.0000e+00
       -5  1    1    2    0  504 +2.2850476608e+02 -2.6737403997e+02 +8.1329454282e+02 8.8610011215e+02 4.7000000000e+00 0.0000e+00 1.0000e+00
       13  1    3    3    0    0 -2.8999594646e+02 +5.1203809729e+01 +1.1307886152e+03 1.1685043310e+03 0.0000000000e+00 0.0000e+00 -1.0000e+00
      -14  1    3    3    0    0 -8.6939003772e+01 +5.2039513639e+01 +2.8673386730e+02 3.0410986833e+02 0.0000000000e+00 0.0000e+00 1.0000e+00
       21  1    1    2  504  503 +1.6242297068e+01 +1.3263553050e+01 -4.4586226354e+01 4.9271346989e+01 0.0000000000e+00 0.0000e+00 -1.0000e+00
<mgrwt>
<rscale>  3 0.58724611E+03</rscale>
<asrwt>0</asrwt>
<pdfrwt beam="1">  1       21 0.50891285E+00 0.76161258E+03</pdfrwt>
<pdfrwt beam="2">  1       21 0.19746986E-01 0.76161258E+03</pdfrwt>
<totfact> 0.23873230E+01</totfact>
</mgrwt>
</event>
<event>
14      3 +1.4674046e+01 2.57795100e+02 7.54677100e-03 1.10894500e-01
        1 -1    0    0  502    0 -0.0000000000e+00 +0.0000000000e+00 +1.4324616593e+03 1.4324616593e+03 0.0000000000e+00 0.0000e+00 1.0000e+00
        2 -1    0    0  501    0 +0.0000000000e+00 -0.0000000000e+00 -1.1091991562e+03 1.1091991562e+03 0.0000000000e+00 0.0000e+00 -1.0000e+00
       -6  2    1    2    0  503 -5.5260437573e+01 -1.7401104691e+02 +2.3850952804e+02 3.4430366873e+02 1.6829931945e+02 0.0000e+00 0.0000e+00
      -24  2    3    3    0    0 -9.4527050258e+01 -1.5751584637e+02 +1.8885280508e+02 2.7871526543e+02 9.0940706559e+01 0.0000e+00 0.0000e+00
        6  2    1    2  501    0 +3.5026142364e+01 +1.8160919868e+02 +5.4170023309e+01 2.5892582293e+02 1.7291459933e+02 0.0000e+00 0.0000e+00
       24  2    5    5    0    0 +3.9517646319e+01 +2.6833538977e+01 -6.7545763952e+00 9.2463889462e+01 7.8881324580e+01 0.0000e+00 0.0000e+00
        5  1    5    5  501    0 -4.4915039556e+00 +1.5477565970e+02 +6.0924599705e+01 1.6646193347e+02 4.7000000000e+00 0.0000e+00 -1.0000e+00
      -13  1    6    6    0    0 +1.1876855444e+01 -4.2757086190e+00 -3.8246881907e+01 4.0276113952e+01 0.0000000000e+00 0.0000e+00 1.0000e+00
       14  1    6    6    0    0 +2.7640790875e+01 +3.1109247596e+01 +3.1492305512e+01 5.2187775510e+01 0.0000000000e+00 0.0000e+00 -1.0000e+00
       -5  1    3    3    0  503 +3.9266612685e+01 -1.6495200545e+01 +4.9656722961e+01 6.5588403304e+01 4.7000000000e+00 0.0000e+00 1.0000e+00
       13  1    4    4    0    0 -5.9739825965e+01 -1.5226068259e+02 +1.2516996497e+02 2.0596039037e+02 0.0000000000e+00 0.0000e+00 -1.0000e+00
      -14  1    4    4    0    0 -3.4787224292e+01 -5.2551637705e+00 +6.3682840112e+01 7.2754875060e+01 0.0000000000e+00 0.0000e+00 1.0000e+00
        2  1    1    2  502    0 +3.4857858969e-01 +2.8186031881e+01 -9.5329018389e+02 9.5370684626e+02 0.0000000000e+00 0.0000e+00 -1.0000e+00
        1  1    1    2  503    0 +1.9885716620e+01 -3.5784183652e+01 +9.8387313570e+02 9.8472447754e+02 0.0000000000e+00 0.0000e+00 1.0000e+00
<mgrwt>
<rscale>  4 0.25702345E+03</rscale>
<asrwt>0</asrwt>
<pdfrwt beam="2">  1        2 0.17064602E+00 0.25779508E+03</pdfrwt>
<pdfrwt beam="1">  1        1 0.22037872E+00 0.25779508E+03</pdfrwt>
<totfact> 0.24888267E+01</totfact>
</mgrwt>
</event>
<event>
12      2 +1.4674046e+01 2.84825900e+02 7.54677100e-03 1.10311800e-01
        2 -1    0    0  503    0 -0.0000000000e+00 +0.0000000000e+00 +8.5618249134e+02 8.5618249134e+02 0.0000000000e+00 0.0000e+00 -1.0000e+00
       21 -1    0    0  501  503 +0.0000000000e+00 -0.0000000000e+00 -2.0410720099e+02 2.0410720099e+02 0.0000000000e+00 0.0000e+00 1.0000e+00
      -24  2    1    2    0    0 -1.9289963315e+01 +4.5938753140e+01 +8.5143632576e+01 1.2683291322e+02 7.9716234121e+01 0.0000e+00 0.0000e+00
        6  2    1    2  501    0 +1.0293789453e+02 +8.2189716457e+01 -3.4360494785e+01 2.1507857684e+02 1.6651363605e+02 0.0000e+00 0.0000e+00
       24  2    4    4    0    0 +1.1490591877e+01 +3.8439715487e+01 -6.2935123338e+01 1.0964959057e+02 8.0327812961e+01 0.0000e+00 0.0000e+00
        5  1    4    4  501    0 +9.1447302657e+01 +4.3750000970e+01 +2.8574628553e+01 1.0542898627e+02 4.7000000000e+00 0.0000e+00 -1.0000e+00
      -13  1    5    5    0    0 +2.2107499343e+01 +2.1177523957e+00 -6.7940438681e+01 7.1478175764e+01 0.0000000000e+00 0.0000e+00 1.0000e+00
       14  1    5    5    0    0 -1.0616907465e+01 +3.6321963091e+01 +5.0053153425e+00 3.8171414810e+01 0.0000000000e+00 0.0000e+00 -1.0000e+00
       -5  1    1    2    0  502 -9.4222028269e+01 -1.9003646302e+02 +1.4312552378e+02 2.5592704711e+02 4.7000000000e+00 0.0000e+00 1.0000e+00
       13  1    3    3    0    0 +1.5100010186e+01 -1.6483071473e+01 +2.5400265364e+01 3.3836007941e+01 0.0000000000e+00 0.0000e+00 -1.0000e+00
      -14  1    3    3    0    0 -3.4389973501e+01 +6.2421824613e+01 +5.9743367211e+01 9.2996905277e+01 0.0000000000e+00 0.0000e+00 1.0000e+00
        2  1    1    2  502    0 +1.0574097050e+01 +6.1907993424e+01 +4.5816662878e+02 4.6245115515e+02 0.0000000000e+00 0.0000e+00 -1.0000e+00
<mgrwt>
<rscale>  3 0.26681271E+03</rscale>
<asrwt>0</asrwt>
<pdfrwt beam="2">  1       21 0.31401108E-01 0.28482591E+03</pdfrwt>
<pdfrwt beam="1">  1        2 0.13172038E+00 0.28482591E+03</pdfrwt>
<totfact> 0.38846201E+03</totfact>
</mgrwt>
</event>
<event>
12      1 +1.4674046e+01 2.85106800e+02 7.54677100e-03 1.09359700e-01
       21 -1    0    0  503  502 +0.0000000000e+00 +0.0000000000e+00 +2.8895057331e+02 2.8895057331e+02 0.0000000000e+00 0.0000e+00 1.0000e+00
       21 -1    0    0  501  503 -0.0000000000e+00 -0.0000000000e+00 -3.1288682522e+02 3.1288682522e+02 0.0000000000e+00 0.0000e+00 1.0000e+00
        6  2    1    2  501    0 -1.2894396991e+02 -1.8587736748e+02 -1.1472474919e+02 3.0732341638e+02 1.7351936797e+02 0.0000e+00 0.0000e+00
       24  2    3    3    0    0 -1.2686459854e+02 -1.3190365683e+02 -2.2029014655e+01 1.9993591977e+02 7.7433154932e+01 0.0000e+00 0.0000e+00
       -6  2    1    2    0  502 +1.2894396991e+02 +1.8587736748e+02 +9.0788497269e+01 2.9451398215e+02 1.6528457679e+02 0.0000e+00 0.0000e+00
      -24  2    5    5    0    0 +1.1772830322e+02 +6.9279889943e+01 +2.5490364203e+01 1.6032493963e+02 7.9966687267e+01 0.0000e+00 0.0000e+00
        5  1    3    3  501    0 -2.0793713704e+00 -5.3973710657e+01 -9.2695734530e+01 1.0738749661e+02 4.7000000000e+00 0.0000e+00 -1.0000e+00
      -13  1    4    4    0    0 -7.9530647790e+01 -1.2204687368e+02 -3.5118300841e+01 1.4984611562e+02 0.0000000000e+00 0.0000e+00 1.0000e+00
       14  1    4    4    0    0 -4.7333950749e+01 -9.8567831520e+00 +1.3089286186e+01 5.0089804157e+01 0.0000000000e+00 0.0000e+00 -1.0000e+00
       -5  1    5    5    0  502 +1.1215666691e+01 +1.1659747754e+02 +6.5298133066e+01 1.3418904251e+02 4.7000000000e+00 0.0000e+00 1.0000e+00
       13  1    6    6    0    0 +6.8005682764e+01 -2.0604189972e+00 +2.7396243749e+01 7.3345568279e+01 0.0000000000e+00 0.0000e+00 -1.0000e+00
      -14  1    6    6    0    0 +4.9722620455e+01 +7.1340308940e+01 -1.9058795466e+00 8.6979371356e+01 0.0000000000e+00 0.0000e+00 1.0000e+00
<mgrwt>
<rscale>  2 0.28386486E+03</rscale>
<asrwt>0</asrwt>
<pdfrwt beam="1">  1       21 0.44453934E-01 0.28510685E+03</pdfrwt>
<pdfrwt beam="2">  1       21 0.48136435E-01 0.28510685E+03</pdfrwt>
<totfact> 0.19109922E+04</totfact>
</mgrwt>
</event>
<event>
12      1 +1.4674046e+01 2.63807700e+02 7.54677100e-03 1.10487700e-01
        1 -1    0    0  502    0 +0.0000000000e+00 +0.0000000000e+00 +5.4600837014e+02 5.4600837014e+02 0.0000000000e+00 0.0000e+00 1.0000e+00
       -1 -1    0    0    0  501 -0.0000000000e+00 -0.0000000000e+00 -1.2821117443e+02 1.2821117443e+02 0.0000000000e+00 0.0000e+00 -1.0000e+00
        6  2    1    2  502    0 -1.8967909290e+02 -6.9271049371e+01 +1.8414567127e+02 3.2275723430e+02 1.7171478528e+02 0.0000e+00 0.0000e+00
       24  2    3    3    0    0 -1.8256074919e+02 -6.1303642934e+00 +1.2307385293e+02 2.3450037097e+02 8.0481315850e+01 0.0000e+00 0.0000e+00
       -6  2    1    2    0  501 +1.8967909290e+02 +6.9271049371e+01 +2.3365152445e+02 3.5146231027e+02 1.6779774759e+02 0.0000e+00 0.0000e+00
      -24  2    5    5    0    0 +1.6136270163e+02 +6.0965973286e+00 +1.1534950616e+02 2.1431171079e+02 8.0925341114e+01 0.0000e+00 0.0000e+00
        5  1    3    3  502    0 -7.1183437095e+00 -6.3140685078e+01 +6.1071818339e+01 8.8256863328e+01 4.7000000000e+00 0.0000e+00 -1.0000e+00
      -13  1    4    4    0    0 -2.2651119749e+01 -6.0965245969e+00 +5.6704164593e+01 6.1364510266e+01 0.0000000000e+00 0.0000e+00 1.0000e+00
       14  1    4    4    0    0 -1.5990962944e+02 -3.3839696412e-02 +6.6369688334e+01 1.7313586071e+02 0.0000000000e+00 0.0000e+00 -1.0000e+00
       -5  1    5    5    0  501 +2.8316391271e+01 +6.3174452043e+01 +1.1830201829e+02 1.3715059948e+02 4.7000000000e+00 0.0000e+00 1.0000e+00
       13  1    6    6    0    0 +9.1738991871e+01 +3.0138672399e+01 +1.0011492070e+02 1.3909485810e+02 0.0000000000e+00 0.0000e+00 -1.0000e+00
      -14  1    6    6    0    0 +6.9623709758e+01 -2.4042075070e+01 +1.5234585458e+01 7.5216852687e+01 0.0000000000e+00 0.0000e+00 1.0000e+00
<mgrwt>
<rscale>  2 0.26380767E+03</rscale>
<asrwt>0</asrwt>
<pdfrwt beam="1">  1        1 0.84001286E-01 0.26380767E+03</pdfrwt>
<pdfrwt beam="2">  1       -1 0.19724796E-01 0.26380767E+03</pdfrwt>
<totfact> 0.82909362E+02</totfact>
</mgrwt>
</event>
<event>
12      1 +1.4674046e+01 1.86023100e+02 7.54677100e-03 1.16313800e-01
       21 -1    0    0  503  502 +0.0000000000e+00 +0.0000000000e+00 +4.0478170208e+02 4.0478170208e+02 0.0000000000e+00 0.0000e+00 1.0000e+00
       21 -1    0    0  501  503 -0.0000000000e+00 -0.0000000000e+00 -8.3551615530e+01 8.3551615530e+01 0.0000000000e+00 0.0000e+00 1.0000e+00
        6  2    1    2  501    0 +4.8264150805e+01 -4.6421310829e+01 +1.7035383050e+02 2.5223998989e+02 1.7355177493e+02 0.0000e+00 0.0000e+00
       24  2    3    3    0    0 -1.7153708841e+00 -8.8602619744e+01 +8.3022565255e+01 1.4303350977e+02 7.5580896088e+01 0.0000e+00 0.0000e+00
       -6  2    1    2    0  502 -4.8264150805e+01 +4.6421310829e+01 +1.5087625604e+02 2.3609332772e+02 1.6879587792e+02 0.0000e+00 0.0000e+00
      -24  2    5    5    0    0 -2.6493680759e+01 -3.8502564341e+01 +9.1602875401e+01 1.3016202171e+02 7.9791619436e+01 0.0000e+00 0.0000e+00
        5  1    3    3  501    0 +4.9979521689e+01 +4.2181308914e+01 +8.7331265249e+01 1.0920648012e+02 4.7000000000e+00 0.0000e+00 -1.0000e+00
      -13  1    4    4    0    0 -3.5175061587e+01 -5.1126328853e+01 +6.4450535339e+01 8.9470989517e+01 0.0000000000e+00 0.0000e+00 1.0000e+00
       14  1    4    4    0    0 +3.3459690703e+01 -3.7476290890e+01 +1.8572029916e+01 5.3562520255e+01 0.0000000000e+00 0.0000e+00 -1.0000e+00
       -5  1    5    5    0  502 -2.1770470046e+01 +8.4923875171e+01 +5.9273380642e+01 1.0593130601e+02 4.7000000000e+00 0.0000e+00 1.0000e+00
       13  1    6    6    0    0 -3.5562717614e+01 -1.3676638015e+01 +9.6076133172e+01 1.0335560303e+02 0.0000000000e+00 0.0000e+00 -1.0000e+00
      -14  1    6    6    0    0 +9.0690368558e+00 -2.4825926326e+01 -4.4732577717e+00 2.6806418681e+01 0.0000000000e+00 0.0000e+00 1.0000e+00
<mgrwt>
<rscale>  2 0.18490581E+03</rscale>
<asrwt>0</asrwt>
<pdfrwt beam="1">  1       21 0.62274107E-01 0.18602308E+03</pdfrwt>
<pdfrwt beam="2">  1       21 0.12854095E-01 0.18602308E+03</pdfrwt>
<totfact> 0.12435730E+05</totfact>
</mgrwt>
</event>
<event>
12      1 +1.4674046e+01 2.17248000e+02 7.54677100e-03 1.13627400e-01
       21 -1    0    0  501  502 +0.0000000000e+00 +0.0000000000e+00 +7.0883960096e+02 7.0883960096e+02 0.0000000000e+00 0.0000e+00 -1.0000e+00
       21 -1    0    0  502  503 -0.0000000000e+00 -0.0000000000e+00 -6.7496855105e+01 6.7496855105e+01 0.0000000000e+00 0.0000e+00 -1.0000e+00
       -6  2    1    2    0  503 +1.0928651292e+02 +6.9420187953e+01 +3.7844608865e+02 4.3636926538e+02 1.7445340167e+02 0.0000e+00 0.0000e+00
      -24  2    3    3    0    0 +1.4186943990e+02 +4.8810445480e+01 +2.5092034973e+02 3.0306017829e+02 7.9843923932e+01 0.0000e+00 0.0000e+00
        6  2    1    2  501    0 -1.0928651292e+02 -6.9420187953e+01 +2.6289665720e+02 3.3996719068e+02 1.7233784833e+02 0.0000e+00 0.0000e+00
       24  2    5    5    0    0 -7.0865489633e+01 -1.1254609668e+02 +2.1122289378e+02 2.6232514756e+02 8.0689718592e+01 0.0000e+00 0.0000e+00
        5  1    5    5  501    0 -3.8421023283e+01 +4.3125908725e+01 +5.1673763422e+01 7.7642043119e+01 4.7000000000e+00 0.0000e+00 -1.0000e+00
      -13  1    6    6    0    0 +1.7171593601e+01 -3.0124458026e+01 +4.0727847783e+01 5.3489290360e+01 0.0000000000e+00 0.0000e+00 1.0000e+00
       14  1    6    6    0    0 -8.8037083234e+01 -8.2421638652e+01 +1.7049504600e+02 2.0883585720e+02 0.0000000000e+00 0.0000e+00 -1.0000e+00
       -5  1    3    3    0  503 -3.2582926984e+01 +2.0609742474e+01 +1.2752573891e+02 1.3330908709e+02 4.7000000000e+00 0.0000e+00 1.0000e+00
       13  1    4    4    0    0 +8.1468105354e+01 +5.8030596045e+01 +1.9962627927e+02 2.2328290047e+02 0.0000000000e+00 0.0000e+00 -1.0000e+00
      -14  1    4    4    0    0 +6.0401334546e+01 -9.2201505659e+00 +5.1294070463e+01 7.9777277818e+01 0.0000000000e+00 0.0000e+00 1.0000e+00
<mgrwt>
<rscale>  2 0.21682297E+03</rscale>
<asrwt>0</asrwt>
<pdfrwt beam="1">  1       21 0.10905224E+00 0.21724800E+03</pdfrwt>
<pdfrwt beam="2">  1       21 0.10384132E-01 0.21724800E+03</pdfrwt>
<totfact> 0.49996606E+04</totfact>
</mgrwt>
</event>
<event>
12      1 +1.4674046e+01 1.84852200e+02 7.54677100e-03 1.16439500e-01
       21 -1    0    0  503  502 +0.0000000000e+00 +0.0000000000e+00 +1.1761169223e+02 1.1761169223e+02 0.0000000000e+00 0.0000e+00 -1.0000e+00
       21 -1    0    0  501  503 -0.0000000000e+00 -0.0000000000e+00 -8.9936226050e+02 8.9936226050e+02 0.0000000000e+00 0.0000e+00 -1.0000e+00
        6  2    1    2  501    0 +4.9786877067e+01 +8.4866981182e+00 -8.1366480120e+02 8.3439843444e+02 1.7781895714e+02 0.0000e+00 0.0000e+00
       24  2    3    3    0    0 -1.0483929843e+01 -1.1231442993e+01 -1.7945616615e+02 1.9700996732e+02 7.9827022721e+01 0.0000e+00 0.0000e+00
       -6  2    1    2    0  502 -4.9786877067e+01 -8.4866981182e+00 +3.1914232925e+01 1.8257551829e+02 1.7252404019e+02 0.0000e+00 0.0000e+00
      -24  2    5    5    0    0 +3.8903681374e+01 +5.3386936760e+00 +1.6175695777e+01 9.1323405077e+01 8.0847468151e+01 0.0000e+00 0.0000e+00
        5  1    3    3  501    0 +6.0270806910e+01 +1.9718141111e+01 -6.3420863504e+02 6.3738846712e+02 4.7000000000e+00 0.0000e+00 -1.0000e+00
      -13  1    4    4    0    0 -4.4149321199e+01 +2.8942078088e-01 -7.9907390535e+01 9.1293139878e+01 0.0000000000e+00 0.0000e+00 1.0000e+00
       14  1    4    4    0    0 +3.3665391357e+01 -1.1520863773e+01 -9.9548775619e+01 1.0571682744e+02 0.0000000000e+00 0.0000e+00 -1.0000e+00
       -5  1    5    5    0  502 -8.8690558441e+01 -1.3825391794e+01 +1.5738537148e+01 9.1252113216e+01 4.7000000000e+00 0.0000e+00 1.0000e+00
       13  1    6    6    0    0 -2.0757265636e+01 -1.6272024636e+01 +6.1411094792e+00 2.7080548150e+01 0.0000000000e+00 0.0000e+00 -1.0000e+00
      -14  1    6    6    0    0 +5.9660947010e+01 +2.1610718312e+01 +1.0034586297e+01 6.4242856928e+01 0.0000000000e+00 0.0000e+00 1.0000e+00
<mgrwt>
<rscale>  2 0.18356696E+03</rscale>
<asrwt>0</asrwt>
<pdfrwt beam="1">  1       21 0.18094106E-01 0.18485221E+03</pdfrwt>
<pdfrwt beam="2">  1       21 0.13836343E+00 0.18485221E+03</pdfrwt>
<totfact> 0.10315882E+04</totfact>
</mgrwt>
</event>
<event>
12      1 +1.4674046e+01 2.05655000e+02 7.54677100e-03 1.14505400e-01
        1 -1    0    0  502    0 +0.0000000000e+00 +0.0000000000e+00 +2.8071245886e+03 2.8071245886e+03 0.0000000000e+00 0.0000e+00 -1.0000e+00
       -1 -1    0    0    0  501 -0.0000000000e+00 -0.0000000000e+00 -1.6199162523e+01 1.6199162523e+01 0.0000000000e+00 0.0000e+00 1.0000e+00
        6  2    1    2  502    0 +8.3328233683e+01 -6.9723971598e+01 +1.7652421631e+03 1.7771182109e+03 1.7396613072e+02 0.0000e+00 0.0000e+00
       24  2    3    3    0    0 +2.5671341087e+01 -8.5051505370e+01 +7.0470880857e+02 7.1489773639e+02 8.1064741393e+01 0.0000e+00 0.0000e+00
       -6  2    1    2    0  501 -8.3328233683e+01 +6.9723971598e+01 +1.0256832630e+03 1.0462055402e+03 1.7525652498e+02 0.0000e+00 0.0000e+00
      -24  2    5    5    0    0 -5.7162073179e+01 +8.8732543534e+01 +9.8477916680e+02 9.9384879421e+02 8.2489099292e+01 0.0000e+00 0.0000e+00
        5  1    3    3  502    0 +5.7656892596e+01 +1.5327533773e+01 +1.0605333545e+03 1.0622204745e+03 4.7000000000e+00 0.0000e+00 -1.0000e+00
      -13  1    4    4    0    0 -7.7199446424e-01 +1.2174263420e+01 +2.5632760673e+01 2.8387445905e+01 0.0000000000e+00 0.0000e+00 1.0000e+00
       14  1    4    4    0    0 +2.6443335552e+01 -9.7225768790e+01 +6.7907604790e+02 6.8651029048e+02 0.0000000000e+00 0.0000e+00 -1.0000e+00
       -5  1    5    5    0  501 -2.6166160505e+01 -1.9008571936e+01 +4.0904096239e+01 5.2356746000e+01 4.7000000000e+00 0.0000e+00 1.0000e+00
       13  1    6    6    0    0 -1.0716823179e+01 +6.1304278378e+01 +2.7187391470e+02 2.7890588079e+02 0.0000000000e+00 0.0000e+00 -1.0000e+00
      -14  1    6    6    0    0 -4.6445250000e+01 +2.7428265156e+01 +7.1290525211e+02 7.1494291343e+02 0.0000000000e+00 0.0000e+00 1.0000e+00
<mgrwt>
<rscale>  2 0.20565495E+03</rscale>
<asrwt>0</asrwt>
<pdfrwt beam="1">  1        1 0.43186494E+00 0.20565495E+03</pdfrwt>
<pdfrwt beam="2">  1       -1 0.24921811E-02 0.20565495E+03</pdfrwt>
<totfact> 0.49436756E+02</totfact>
</mgrwt>
</event>
<event>
13      2 +1.4674046e+01 2.74461900e+02 7.54677100e-03 1.09923300e-01
       21 -1    0    0  501  502 +0.0000000000e+00 +0.0000000000e+00 +2.0556279502e+02 2.0556279502e+02 0.0000000000e+00 0.0000e+00 1.0000e+00
       21 -1    0    0  504  503 -0.0000000000e+00 -0.0000000000e+00 -4.4285777707e+02 4.4285777707e+02 0.0000000000e+00 0.0000e+00 1.0000e+00
       -6  2    1    2    0  503 +9.0563061091e+01 +1.8236370241e+02 -7.2390783887e+01 2.7889627269e+02 1.7630801835e+02 0.0000e+00 0.0000e+00
      -24  2    3    3    0    0 +1.1010415560e+02 +8.1530662831e+01 -1.1675416807e+01 1.5949107161e+02 8.0814061294e+01 0.0000e+00 0.0000e+00
        6  2    1    2  501    0 -7.7701584994e+01 -2.0088724714e+02 -1.9116659316e+02 3.3490851301e+02 1.7095561813e+02 0.0000e+00 0.0000e+00
       24  2    5    5    0    0 -4.8975552735e+00 -4.4342861168e+01 -1.1458698366e+02 1.4598234194e+02 7.8679043905e+01 0.0000e+00 0.0000e+00
        5  1    5    5  501    0 -7.2804029721e+01 -1.5654438598e+02 -7.6579609501e+01 1.8892617107e+02 4.7000000000e+00 0.0000e+00 -1.0000e+00
      -13  1    6    6    0    0 +3.3668792903e+01 -3.0319401683e+01 -3.8169134543e+01 5.9243029681e+01 0.0000000000e+00 0.0000e+00 1.0000e+00
       14  1    6    6    0    0 -3.8566348177e+01 -1.4023459485e+01 -7.6417849114e+01 8.6739312257e+01 0.0000000000e+00 0.0000e+00 -1.0000e+00
       -5  1    3    3    0  503 -1.9541094507e+01 +1.0083303958e+02 -6.0715367080e+01 1.1940520108e+02 4.7000000000e+00 0.0000e+00 1.0000e+00
       13  1    4    4    0    0 -1.1320314896e+01 +1.9740955662e+01 -7.9927845643e-02 2.2756564948e+01 0.0000000000e+00 0.0000e+00 -1.0000e+00
      -14  1    4    4    0    0 +1.2142447049e+02 +6.1789707169e+01 -1.1595488962e+01 1.3673450666e+02 0.0000000000e+00 0.0000e+00 1.0000e+00
       21  1    1    2  504  502 -1.2861476096e+01 +1.8523544730e+01 +2.6262394994e+01 3.4615786393e+01 0.0000000000e+00 0.0000e+00 1.0000e+00
<mgrwt>
<rscale>  3 0.27360612E+03</rscale>
<asrwt>0</asrwt>
<pdfrwt beam="1">  1       21 0.31625045E-01 0.27446192E+03</pdfrwt>
<pdfrwt beam="2">  1       21 0.68131966E-01 0.27446192E+03</pdfrwt>
<totfact> 0.18097612E+04</totfact>
</mgrwt>
</event>
<event>
14      3 +1.4674046e+01 2.45116100e+02 7.54677100e-03 1.11658400e-01
       21 -1    0    0  503  502 +0.0000000000e+00 +0.0000000000e+00 +8.5456354661e+02 8.5456354661e+02 0.0000000000e+00 0.0000e+00 1.0000e+00
       21 -1    0    0  501  503 -0.0000000000e+00 -0.0000000000e+00 -2.3225414168e+02 2.3225414168e+02 0.0000000000e+00 0.0000e+00 -1.0000e+00
        6  2    1    2  501    0 +2.1911619085e+02 -5.5636148961e+01 +4.6645049200e+01 2.8843650827e+02 1.7295251524e+02 0.0000e+00 0.0000e+00
       24  2    3    3    0    0 +2.3818703800e+02 -3.1105789399e+01 +3.9452147537e+01 2.5619889692e+02 7.9879707254e+01 0.0000e+00 0.0000e+00
       -6  2    1    2    0  504 -7.8119588529e+01 +1.3311005508e+02 +3.8726134186e+01 2.3599993516e+02 1.7428510852e+02 0.0000e+00 0.0000e+00
      -24  2    5    5    0    0 -1.5336527582e+01 +1.4521386459e+02 +4.6129808798e+01 1.7146219935e+02 7.7130091380e+01 0.0000e+00 0.0000e+00
        5  1    3    3  501    0 -1.9070847157e+01 -2.4530359562e+01 +7.1929016630e+00 3.2237611355e+01 4.7000000000e+00 0.0000e+00 -1.0000e+00
      -13  1    4    4    0    0 +1.1732410359e+02 -1.1931183395e+01 +5.9669508260e+01 1.3216561065e+02 0.0000000000e+00 0.0000e+00 1.0000e+00
       14  1    4    4    0    0 +1.2086293441e+02 -1.9174606004e+01 -2.0217360723e+01 1.2403328627e+02 0.0000000000e+00 0.0000e+00 -1.0000e+00
       -5  1    5    5    0  504 -6.2783060946e+01 -1.2103809511e+01 -7.4036746124e+00 6.4537735816e+01 4.7000000000e+00 0.0000e+00 1.0000e+00
       13  1    6    6    0    0 +1.4595947472e-01 +9.8806571655e+01 -7.2290995954e+00 9.9070781703e+01 0.0000000000e+00 0.0000e+00 -1.0000e+00
      -14  1    6    6    0    0 -1.5482487057e+01 +4.6407292938e+01 +5.3358908394e+01 7.2391417643e+01 0.0000000000e+00 0.0000e+00 1.0000e+00
       21  1    1    2  504  505 -2.8986345872e+01 -2.6518728088e+01 +7.9457725770e+01 8.8639615133e+01 0.0000000000e+00 0.0000e+00 1.0000e+00
       21  1    1    2  505  502 -1.1201025645e+02 -5.0955178033e+01 +4.5748049577e+02 4.7374162972e+02 0.0000000000e+00 0.0000e+00 1.0000e+00
<mgrwt>
<rscale>  4 0.24487936E+03</rscale>
<asrwt>0</asrwt>
<pdfrwt beam="1">  1       21 0.13147131E+00 0.24511613E+03</pdfrwt>
<pdfrwt beam="2">  1       21 0.35731407E-01 0.24511613E+03</pdfrwt>
<totfact> 0.30426311E+03</totfact>
</mgrwt>
</event>
<event>
14      3 +1.4674046e+01 1.83454700e+02 7.54677100e-03 1.16713100e-01
       21 -1    0    0  501  503 +0.0000000000e+00 +0.0000000000e+00 +1.1493169444e+02 1.1493169444e+02 0.0000000000e+00 0.0000e+00 1.0000e+00
        2 -1    0    0  504    0 -0.0000000000e+00 -0.0000000000e+00 -1.5075513434e+03 1.5075513434e+03 0.0000000000e+00 0.0000e+00 1.0000e+00
        6  2    1    2  501    0 -2.2714032037e+01 +7.2757199906e+01 -4.3553517734e+02 4.7462799241e+02 1.7254362662e+02 0.0000e+00 0.0000e+00
       24  2    3    3    0    0 -3.6048378273e+01 +7.6217273048e+00 -3.7242239990e+02 3.8283612318e+02 8.0668934296e+01 0.0000e+00 0.0000e+00
       -6  2    1    2    0  502 +5.2935815272e+01 +8.2636890611e+01 -4.5048068551e+01 1.9388131069e+02 1.6102663732e+02 0.0000e+00 0.0000e+00
      -24  2    5    5    0    0 -2.2797207845e+01 +1.0817360378e+00 -2.4046716316e+01 8.0523995868e+01 7.3382467297e+01 0.0000e+00 0.0000e+00
        5  1    3    3  501    0 +1.3334346235e+01 +6.5135472601e+01 -6.3112777441e+01 9.1791869231e+01 4.7000000000e+00 0.0000e+00 -1.0000e+00
      -13  1    4    4    0    0 -2.1126867913e+01 +4.3188566717e+01 -2.4626412761e+02 2.5091356558e+02 0.0000000000e+00 0.0000e+00 1.0000e+00
       14  1    4    4    0    0 -1.4921510360e+01 -3.5566839413e+01 -1.2615827229e+02 1.3192255760e+02 0.0000000000e+00 0.0000e+00 -1.0000e+00
       -5  1    5    5    0  502 +7.5733023117e+01 +8.1555154573e+01 -2.1001352234e+01 1.1335731482e+02 4.7000000000e+00 0.0000e+00 1.0000e+00
       13  1    6    6    0    0 +1.0121377898e+01 -2.9408125888e+01 -1.5868110289e+01 3.4915284375e+01 0.0000000000e+00 0.0000e+00 -1.0000e+00
      -14  1    6    6    0    0 -3.2918585743e+01 +3.0489861926e+01 -8.1786060268e+00 4.5608711494e+01 0.0000000000e+00 0.0000e+00 1.0000e+00
       21  1    1    2  504  503 +8.5938691396e+00 -2.5426969871e+01 +4.7074779848e+00 2.7249692339e+01 0.0000000000e+00 0.0000e+00 1.0000e+00
        2  1    1    2  502    0 -3.8815652374e+01 -1.2996712065e+02 -9.1674388107e+02 9.2672404242e+02 0.0000000000e+00 0.0000e+00 1.0000e+00
<mgrwt>
<rscale>  4 0.18069622E+03</rscale>
<asrwt>0</asrwt>
<pdfrwt beam="1">  1       21 0.17681800E-01 0.18345474E+03</pdfrwt>
<pdfrwt beam="2">  1        2 0.23193096E+00 0.18345474E+03</pdfrwt>
<totfact> 0.50671345E+03</totfact>
</mgrwt>
</event>
<event>
12      1 +1.4674046e+01 1.95130100e+02 7.54677100e-03 1.15391500e-01
       21 -1    0    0  501  502 +0.0000000000e+00 +0.0000000000e+00 +7.4711558643e+01 7.4711558643e+01 0.0000000000e+00 0.0000e+00 1.0000e+00
       21 -1    0    0  502  503 -0.0000000000e+00 -0.0000000000e+00 -7.6172627803e+02 7.6172627803e+02 0.0000000000e+00 0.0000e+00 1.0000e+00
        6  2    1    2  501    0 -8.7452129127e+01 +2.5720332568e+01 -1.0290776379e+02 2.2059964499e+02 1.7252473771e+02 0.0000e+00 0.0000e+00
       24  2    3    3    0    0 -1.7535273196e+01 -3.6226523917e+01 -1.7001708750e+01 9.3604684202e+01 8.2782437528e+01 0.0000e+00 0.0000e+00
       -6  2    1    2    0  503 +8.7452129127e+01 -2.5720332568e+01 -5.8410695560e+02 6.1583819169e+02 1.7252922178e+02 0.0000e+00 0.0000e+00
      -24  2    5    5    0    0 +8.0881696076e+01 +4.1534093713e+01 -2.9499192110e+02 3.1889388442e+02 8.0038405206e+01 0.0000e+00 0.0000e+00
        5  1    3    3  501    0 -6.9916855931e+01 +6.1946856485e+01 -8.5906055044e+01 1.2699496079e+02 4.7000000000e+00 0.0000e+00 -1.0000e+00
      -13  1    4    4    0    0 -4.1512824912e+01 +2.9315116776e+00 +6.3399483037e+00 4.2096357769e+01 0.0000000000e+00 0.0000e+00 1.0000e+00
       14  1    4    4    0    0 +2.3977551717e+01 -3.9158035595e+01 -2.3341657054e+01 5.1508326434e+01 0.0000000000e+00 0.0000e+00 -1.0000e+00
       -5  1    5    5    0  503 +6.5704330509e+00 -6.7254426281e+01 -2.8911503450e+02 2.9694430727e+02 4.7000000000e+00 0.0000e+00 1.0000e+00
       13  1    6    6    0    0 +2.1169004409e+01 +5.5538522687e+01 -1.5753317601e+02 1.6837266938e+02 0.0000000000e+00 0.0000e+00 -1.0000e+00
      -14  1    6    6    0    0 +5.9712691667e+01 -1.4004428974e+01 -1.3745874509e+02 1.5052121505e+02 0.0000000000e+00 0.0000e+00 1.0000e+00
<mgrwt>
<rscale>  2 0.19512908E+03</rscale>
<asrwt>0</asrwt>
<pdfrwt beam="1">  1       21 0.11494085E-01 0.19513007E+03</pdfrwt>
<pdfrwt beam="2">  1       21 0.11718867E+00 0.19513007E+03</pdfrwt>
<totfact> 0.35433628E+04</totfact>
</mgrwt>
</event>
<event>
14      3 +1.4674046e+01 5.33449200e+02 7.54677100e-03 1.03910000e-01
       21 -1    0    0  503  502 +0.0000000000e+00 +0.0000000000e+00 +8.4602996960e+02 8.4602996960e+02 0.0000000000e+00 0.0000e+00 1.0000e+00
       21 -1    0    0  504  503 -0.0000000000e+00 -0.0000000000e+00 -6.3162456412e+02 6.3162456412e+02 0.0000000000e+00 0.0000e+00 1.0000e+00
        6  2    1    2  501    0 +3.6934493071e+02 +4.0621713081e+02 +3.6389395496e+02 6.8131342240e+02 1.7418706579e+02 0.0000e+00 0.0000e+00
       24  2    3    3    0    0 +2.0550019349e+02 +1.5738799850e+02 +2.2288823657e+02 3.5166855650e+02 8.3607990236e+01 0.0000e+00 0.0000e+00
       -6  2    1    2    0  505 -2.4227458601e+01 -6.5529542677e+01 -1.0343750452e+02 2.1463470110e+02 1.7460712146e+02 0.0000e+00 0.0000e+00
      -24  2    5    5    0    0 +4.7256062296e+01 -7.8554792622e+00 -6.7281255210e+01 1.1581387478e+02 8.1186466309e+01 0.0000e+00 0.0000e+00
        5  1    3    3  501    0 +1.6384473722e+02 +2.4882913231e+02 +1.4100571839e+02 3.2964486591e+02 4.7000000000e+00 0.0000e+00 -1.0000e+00
      -13  1    4    4    0    0 +1.8094760187e+02 +1.6437936974e+02 +2.1317330966e+02 3.2435392979e+02 0.0000000000e+00 0.0000e+00 1.0000e+00
       14  1    4    4    0    0 +2.4552591619e+01 -6.9913712453e+00 +9.7149269069e+00 2.7314626702e+01 0.0000000000e+00 0.0000e+00 -1.0000e+00
       -5  1    5    5    0  505 -7.1483520897e+01 -5.7674063415e+01 -3.6156249306e+01 9.8820826320e+01 4.7000000000e+00 0.0000e+00 1.0000e+00
       13  1    6    6    0    0 +8.6709359782e-01 +2.9983620912e+01 -6.8853651663e+00 3.0776251035e+01 0.0000000000e+00 0.0000e+00 -1.0000e+00
      -14  1    6    6    0    0 +4.6388968699e+01 -3.7839100174e+01 -6.0395890043e+01 8.5037623750e+01 0.0000000000e+00 0.0000e+00 1.0000e+00
       21  1    1    2  504  501 -8.1373424190e+00 -4.0495124921e+01 -1.1771609981e+02 1.2475236125e+02 0.0000000000e+00 0.0000e+00 1.0000e+00
       21  1    1    2  505  502 -3.3698012969e+02 -3.0019246321e+02 +7.1665054839e+01 4.5695404896e+02 0.0000000000e+00 0.0000e+00 1.0000e+00
<mgrwt>
<rscale>  4 0.41380844E+03</rscale>
<asrwt>0</asrwt>
<pdfrwt beam="1">  1       21 0.13015846E+00 0.53344916E+03</pdfrwt>
<pdfrwt beam="2">  1       21 0.97173009E-01 0.53344916E+03</pdfrwt>
<totfact> 0.30162238E+02</totfact>
</mgrwt>
</event>
<event>
13      2 +1.4674046e+01 1.94919300e+02 7.54677100e-03 1.15442300e-01
       21 -1    0    0  501  502 +0.0000000000e+00 +0.0000000000e+00 +6.2841233916e+02 6.2841233916e+02 0.0000000000e+00 0.0000e+00 -1.0000e+00
       21 -1    0    0  504  503 -0.0000000000e+00 -0.0000000000e+00 -8.9228321177e+01 8.9228321177e+01 0.0000000000e+00 0.0000e+00 1.0000e+00
       -6  2    1    2    0  503 -5.9235393499e+01 -8.3795461530e+01 +1.0950951125e+02 2.2751265893e+02 1.7099463648e+02 0.0000e+00 0.0000e+00
      -24  2    3    3    0    0 -3.5413543530e+00 -9.9459277172e+01 +1.1518677567e+02 1.6919025802e+02 7.3842136440e+01 0.0000e+00 0.0000e+00
        6  2    1    2  501    0 +5.5707499740e+01 +3.5602767357e+01 +3.6742577026e+02 4.1132516516e+02 1.7267255797e+02 0.0000e+00 0.0000e+00
       24  2    5    5    0    0 -1.7060244697e+01 -1.5802232872e+01 +2.5193313428e+02 2.6538593930e+02 8.0116353641e+01 0.0000e+00 0.0000e+00
        5  1    5    5  501    0 +7.2767744437e+01 +5.1405000229e+01 +1.1549263598e+02 1.4593922586e+02 4.7000000000e+00 0.0000e+00 -1.0000e+00
      -13  1    6    6    0    0 +1.6816714695e+01 +1.6771779848e+00 +8.3728902325e+00 1.8860543735e+01 0.0000000000e+00 0.0000e+00 1.0000e+00
       14  1    6    6    0    0 -3.3876959392e+01 -1.7479410857e+01 +2.4356024404e+02 2.4652539557e+02 0.0000000000e+00 0.0000e+00 -1.0000e+00
       -5  1    3    3    0  503 -5.5694039146e+01 +1.5663815642e+01 -5.6772644240e+00 5.8322400913e+01 4.7000000000e+00 0.0000e+00 1.0000e+00
       13  1    4    4    0    0 -1.1094899655e+01 -4.8210665409e+01 +7.9615371293e+00 5.0107395970e+01 0.0000000000e+00 0.0000e+00 -1.0000e+00
      -14  1    4    4    0    0 +7.5535453016e+00 -5.1248611764e+01 +1.0722523854e+02 1.1908286205e+02 0.0000000000e+00 0.0000e+00 1.0000e+00
       21  1    1    2  504  502 +3.5278937597e+00 +4.8192694173e+01 +6.2248736485e+01 7.8802836243e+01 0.0000000000e+00 0.0000e+00 -1.0000e+00
<mgrwt>
<rscale>  3 0.19454703E+03</rscale>
<asrwt>0</asrwt>
<pdfrwt beam="1">  1       21 0.96678819E-01 0.19491931E+03</pdfrwt>
<pdfrwt beam="2">  1       21 0.13727434E-01 0.19491931E+03</pdfrwt>
<totfact> 0.40914893E+04</totfact>
</mgrwt>
</event>
<event>
12      1 +1.4674046e+01 1.74515300e+02 7.54677100e-03 1.17395800e-01
       21 -1    0    0  501  502 +0.0000000000e+00 +0.0000000000e+00 +1.5586494885e+02 1.5586494885e+02 0.0000000000e+00 0.0000e+00 1.0000e+00
       21 -1    0    0  502  503 -0.0000000000e+00 -0.0000000000e+00 -2.0644515917e+02 2.0644515917e+02 0.0000000000e+00 0.0000e+00 1.0000e+00
       -6  2    1    2    0  503 +2.0734275060e+01 +1.2177101007e+01 -7.3143569017e+01 1.8922358499e+02 1.7285077807e+02 0.0000e+00 0.0000e+00
      -24  2    3    3    0    0 +9.8514194649e+00 +3.8406297611e+01 +1.9261558805e+01 9.2439263183e+01 8.1252172700e+01 0.0000e+00 0.0000e+00
        6  2    1    2  501    0 -2.0734275060e+01 -1.2177101007e+01 +2.2563358689e+01 1.7308652303e+02 1.6991658938e+02 0.0000e+00 0.0000e+00
       24  2    5    5    0    0 -2.5822481896e+01 +5.4260279872e+01 +2.8436673076e+01 1.0603131258e+02 8.2601551610e+01 0.0000e+00 0.0000e+00
        5  1    5    5  501    0 +5.0882068360e+00 -6.6437380879e+01 -5.8733143864e+00 6.7055210452e+01 4.7000000000e+00 0.0000e+00 -1.0000e+00
      -13  1    6    6    0    0 -2.0409054968e+01 -1.6985297825e+01 +2.1647599660e+01 3.4258552771e+01 0.0000000000e+00 0.0000e+00 1.0000e+00
       14  1    6    6    0    0 -5.4134269285e+00 +7.1245577697e+01 +6.7890734152e+00 7.1772759807e+01 0.0000000000e+00 0.0000e+00 -1.0000e+00
       -5  1    3    3    0  503 +1.0882855596e+01 -2.6229196605e+01 -9.2405127822e+01 9.6784321810e+01 4.7000000000e+00 0.0000e+00 1.0000e+00
       13  1    4    4    0    0 -1.9421431482e+01 +5.0701970668e+00 -2.3442242476e+01 3.0861588284e+01 0.0000000000e+00 0.0000e+00 -1.0000e+00
      -14  1    4    4    0    0 +2.9272850947e+01 +3.3336100545e+01 +4.2703801281e+01 6.1577674899e+01 0.0000000000e+00 0.0000e+00 1.0000e+00
<mgrwt>
<rscale>  2 0.17378427E+03</rscale>
<asrwt>0</asrwt>
<pdfrwt beam="1">  1       21 0.23979223E-01 0.17451528E+03</pdfrwt>
<pdfrwt beam="2">  1       21 0.31760794E-01 0.17451528E+03</pdfrwt>
<totfact> 0.15720994E+05</totfact>
</mgrwt>
</event>
<event>
14      3 +1.4674046e+01 4.43926900e+02 7.54677100e-03 1.02954900e-01
       21 -1    0    0  501  502 +0.0000000000e+00 +0.0000000000e+00 +1.0771062363e+03 1.0771062363e+03 0.0000000000e+00 0.0000e+00 1.0000e+00
       21 -1    0    0  504  503 -0.0000000000e+00 -0.0000000000e+00 -3.8616269075e+02 3.8616269075e+02 0.0000000000e+00 0.0000e+00 1.0000e+00
        6  2    1    2  501    0 +5.3802502985e+01 -1.4387275721e+02 +7.0478556048e+01 2.4162499632e+02 1.7268854157e+02 0.0000e+00 0.0000e+00
       24  2    3    3    0    0 +9.7200471634e+01 -1.2872677302e+02 +3.0657727349e+01 1.8062849709e+02 7.5287740955e+01 0.0000e+00 0.0000e+00
       -6  2    1    2    0  503 +1.7903039973e+01 -8.8150181291e+01 -1.7222357125e+01 1.8269275199e+02 1.5807927993e+02 0.0000e+00 0.0000e+00
      -24  2    5    5    0    0 -3.4408793367e+01 -9.9079847535e+01 -1.1173521235e+01 1.2870512445e+02 7.3752154101e+01 0.0000e+00 0.0000e+00
        5  1    3    3  501    0 -4.3397968649e+01 -1.5145984185e+01 +3.9820828699e+01 6.0996499228e+01 4.7000000000e+00 0.0000e+00 -1.0000e+00
      -13  1    4    4    0    0 +1.4174528575e+01 -5.9101567548e+01 +3.8571933640e+01 7.1984071930e+01 0.0000000000e+00 0.0000e+00 1.0000e+00
       14  1    4    4    0    0 +8.3025943059e+01 -6.9625205472e+01 -7.9142062906e+00 1.0864442516e+02 0.0000000000e+00 0.0000e+00 -1.0000e+00
       -5  1    5    5    0  503 +5.2311833340e+01 +1.0929666244e+01 -6.0488358894e+00 5.3987627538e+01 4.7000000000e+00 0.0000e+00 1.0000e+00
       13  1    6    6    0    0 -3.5936248420e+01 -4.3254682579e+01 -3.6856172941e+01 6.7236589737e+01 0.0000000000e+00 0.0000e+00 -1.0000e+00
      -14  1    6    6    0    0 +1.5274550526e+00 -5.5825164956e+01 +2.5682651706e+01 6.1468534714e+01 0.0000000000e+00 0.0000e+00 1.0000e+00
       21  1    1    2  504  505 +7.5789396815e+01 -1.3807404139e+01 -1.6743720216e+02 1.8430923402e+02 0.0000000000e+00 0.0000e+00 1.0000e+00
       21  1    1    2  505  502 -1.4749493977e+02 +2.4583034264e+02 +8.0512454880e+02 8.5464194473e+02 0.0000000000e+00 0.0000e+00 1.0000e+00
<mgrwt>
<rscale>  4 0.44392688E+03</rscale>
<asrwt>0</asrwt>
<pdfrwt beam="1">  1       21 0.16570865E+00 0.44392688E+03</pdfrwt>
<pdfrwt beam="2">  1       21 0.59409645E-01 0.44392688E+03</pdfrwt>
<totfact> 0.50449725E+02</totfact>
</mgrwt>
</event>
<event>
13      2 +1.4674046e+01 1.92815700e+02 7.54677100e-03 1.15622400e-01
       21 -1    0    0  503  502 +0.0000000000e+00 +0.0000000000e+00 +6.5681533701e+02 6.5681533701e+02 0.0000000000e+00 0.0000e+00 1.0000e+00
       21 -1    0    0  501  503 -0.0000000000e+00 -0.0000000000e+00 -6.0959577607e+01 6.0959577607e+01 0.0000000000e+00 0.0000e+00 -1.0000e+00
        6  2    1    2  501    0 -2.2282759950e+01 -7.9742017128e+01 +3.9872239294e+02 4.4289665725e+02 1.7413383269e+02 0.0000e+00 0.0000e+00
       24  2    3    3    0    0 -2.2797581393e+01 +2.2425465453e+01 +2.2893235329e+02 2.4468160459e+02 8.0227389480e+01 0.0000e+00 0.0000e+00
       -6  2    1    2    0  502 +2.2282759950e+01 +7.9742017128e+01 +1.9713336646e+02 2.7487825736e+02 1.7274600288e+02 0.0000e+00 0.0000e+00
      -24  2    5    5    0    0 -3.7956042051e+01 +4.5856727335e+01 +8.9945047482e+01 1.3583915644e+02 8.2575203822e+01 0.0000e+00 0.0000e+00
        5  1    3    3  501    0 +5.1482144313e-01 -1.0216748258e+02 +1.6979003965e+02 1.9821505267e+02 4.7000000000e+00 0.0000e+00 -1.0000e+00
      -13  1    4    4    0    0 -5.0990358767e+01 +2.3669213992e+01 +1.2641415469e+02 1.3835023269e+02 0.0000000000e+00 0.0000e+00 1.0000e+00
       14  1    4    4    0    0 +2.8192777374e+01 -1.2437485388e+00 +1.0251819860e+02 1.0633137190e+02 0.0000000000e+00 0.0000e+00 -1.0000e+00
       -5  1    5    5    0  504 +1.5846004969e+01 +3.2024854612e+01 +7.7873002691e+01 8.5807818609e+01 4.7000000000e+00 0.0000e+00 -1.0000e+00
       13  1    6    6    0    0 -3.2094327534e+01 -1.6324999553e+01 +1.7031862638e+01 3.9832597395e+01 0.0000000000e+00 0.0000e+00 -1.0000e+00
      -14  1    6    6    0    0 -5.8617145163e+00 +6.2181726888e+01 +7.2913184845e+01 9.6006559047e+01 0.0000000000e+00 0.0000e+00 1.0000e+00
       21  1    5    5  504  502 +4.4392797031e+01 +1.8604351822e+00 +2.9315316284e+01 5.3231282308e+01 0.0000000000e+00 0.0000e+00 1.0000e+00
<mgrwt>
<rscale>  3 0.19250185E+03</rscale>
<asrwt>0</asrwt>
<pdfrwt beam="1">  1       21 0.10104851E+00 0.19281572E+03</pdfrwt>
<pdfrwt beam="2">  1       21 0.93783970E-02 0.19281572E+03</pdfrwt>
<totfact> 0.72766512E+04</totfact>
</mgrwt>
</event>
<event>
14      3 +1.4674046e+01 1.80863200e+02 7.54677100e-03 1.16719900e-01
       21 -1    0    0  505  502 +0.0000000000e+00 +0.0000000000e+00 +5.8179324130e+02 5.8179324130e+02 0.0000000000e+00 0.0000e+00 -1.0000e+00
       21 -1    0    0  504  503 -0.0000000000e+00 -0.0000000000e+00 -1.1553328344e+02 1.1553328344e+02 0.0000000000e+00 0.0000e+00 -1.0000e+00
        6  2    1    2  501    0 +2.7591023549e+01 -9.8558862510e+00 +1.0474057065e+02 2.0377488839e+02 1.7232299592e+02 0.0000e+00 0.0000e+00
       24  2    3    3    0    0 +5.6745695608e+01 +4.5955077973e+01 +5.0988468176e+01 1.2085180866e+02 8.1690835519e+01 0.0000e+00 0.0000e+00
       -6  2    1    2    0  502 -5.9391667828e+01 +4.8087065856e+01 +1.1706882909e+02 2.2267076056e+02 1.7331307150e+02 0.0000e+00 0.0000e+00
      -24  2    5    5    0    0 +1.2533825148e+01 +7.3816575047e+01 +4.8184716202e+01 1.1970282773e+02 8.0006353286e+01 0.0000e+00 0.0000e+00
        5  1    3    3  501    0 -2.9154672059e+01 -5.5810964224e+01 +5.3752102478e+01 8.2923079726e+01 4.7000000000e+00 0.0000e+00 -1.0000e+00
      -13  1    4    4    0    0 +3.2857414889e+01 +6.5259698222e+01 +1.6949997938e+01 7.5004935540e+01 0.0000000000e+00 0.0000e+00 1.0000e+00
       14  1    4    4    0    0 +2.3888280719e+01 -1.9304620249e+01 +3.4038470238e+01 4.5846873119e+01 0.0000000000e+00 0.0000e+00 -1.0000e+00
       -5  1    5    5    0  502 -7.1925492976e+01 -2.5729509190e+01 +6.8884112883e+01 1.0296793283e+02 4.7000000000e+00 0.0000e+00 1.0000e+00
       13  1    6    6    0    0 -5.3331417954e+00 +2.9012816321e+01 -2.0392264370e+01 3.5861265433e+01 0.0000000000e+00 0.0000e+00 -1.0000e+00
      -14  1    6    6    0    0 +1.7866966943e+01 +4.4803758726e+01 +6.8576980573e+01 8.3841562296e+01 0.0000000000e+00 0.0000e+00 1.0000e+00
       21  1    1    2  504  501 +1.4803501853e+01 -1.3978849935e+01 -3.9338817439e+00 2.0737100525e+01 0.0000000000e+00 0.0000e+00 -1.0000e+00
       21  1    1    2  505  503 +1.6997142426e+01 -2.4252329671e+01 +2.4838443986e+02 2.5014377527e+02 0.0000000000e+00 0.0000e+00 -1.0000e+00
<mgrwt>
<rscale>  4 0.18062564E+03</rscale>
<asrwt>0</asrwt>
<pdfrwt beam="1">  1       21 0.89506651E-01 0.18086324E+03</pdfrwt>
<pdfrwt beam="2">  1       21 0.17774352E-01 0.18086324E+03</pdfrwt>
<totfact> 0.30777999E+04</totfact>
</mgrwt>
</event>
<event>
13      2 +1.4674046e+01 2.18078900e+02 7.54677100e-03 1.13541400e-01
       21 -1    0    0  501  502 +0.0000000000e+00 +0.0000000000e+00 +1.7163618579e+02 1.7163618579e+02 0.0000000000e+00 0.0000e+00 1.0000e+00
       21 -1    0    0  502  503 -0.0000000000e+00 -0.0000000000e+00 -3.3565761105e+02 3.3565761105e+02 0.0000000000e+00 0.0000e+00 -1.0000e+00
       -6  2    1    2    0  504 -2.4054340102e+01 -1.3349022835e+02 -1.1430822054e+02 2.4780482156e+02 1.7303932491e+02 0.0000e+00 0.0000e+00
      -24  2    3    3    0    0 -6.9032601265e+01 -1.1540256770e+02 -1.2011645652e+02 1.9875349079e+02 8.3616591103e+01 0.0000e+00 0.0000e+00
        6  2    1    2  501    0 -1.0735460134e+01 +1.3077625431e+02 -3.0850774448e+01 2.1982177055e+02 1.7364377826e+02 0.0000e+00 0.0000e+00
       24  2    5    5    0    0 -2.3522712359e+01 +1.3673608368e+02 +2.4733606951e+01 1.6228268087e+02 8.0460192767e+01 0.0000e+00 0.0000e+00
        5  1    5    5  501    0 +1.2787252226e+01 -5.9598293717e+00 -5.5584381399e+01 5.7539089679e+01 4.7000000000e+00 0.0000e+00 -1.0000e+00
      -13  1    6    6    0    0 +6.2997192746e+00 +9.6817367485e+01 -1.5482603099e+01 9.8249682485e+01 0.0000000000e+00 0.0000e+00 1.0000e+00
       14  1    6    6    0    0 -2.9822431634e+01 +3.9918716196e+01 +4.0216210050e+01 6.4032998385e+01 0.0000000000e+00 0.0000e+00 -1.0000e+00
       -5  1    3    3    0  504 +4.4978261163e+01 -1.8087660650e+01 +5.8082359787e+00 4.9051330769e+01 4.7000000000e+00 0.0000e+00 1.0000e+00
       13  1    4    4    0    0 -3.6234975208e+01 -1.2975861767e+01 -1.3280419446e+00 3.8511168670e+01 0.0000000000e+00 0.0000e+00 -1.0000e+00
      -14  1    4    4    0    0 -3.2797626057e+01 -1.0242670593e+02 -1.1878841457e+02 1.6024232212e+02 0.0000000000e+00 0.0000e+00 1.0000e+00
       21  1    1    2  504  503 +3.4789800236e+01 +2.7139740411e+00 -1.8862430272e+01 3.9667204733e+01 0.0000000000e+00 0.0000e+00 1.0000e+00
<mgrwt>
<rscale>  3 0.21795859E+03</rscale>
<asrwt>0</asrwt>
<pdfrwt beam="1">  1       21 0.26405567E-01 0.21807894E+03</pdfrwt>
<pdfrwt beam="2">  1       21 0.51639632E-01 0.21807894E+03</pdfrwt>
<totfact> 0.47996003E+04</totfact>
</mgrwt>
</event>
<event>
14      3 +1.4674046e+01 1.86159900e+02 7.54677100e-03 1.16198900e-01
       21 -1    0    0  505  502 +0.0000000000e+00 +0.0000000000e+00 +9.8800610991e+01 9.8800610991e+01 0.0000000000e+00 0.0000e+00 1.0000e+00
       21 -1    0    0  502  503 -0.0000000000e+00 -0.0000000000e+00 -1.8800004159e+03 1.8800004159e+03 0.0000000000e+00 0.0000e+00 1.0000e+00
       -6  2    1    2    0  504 -1.1421165120e+01 +4.3507447168e+01 -1.1624623359e+02 2.1397710054e+02 1.7392432768e+02 0.0000e+00 0.0000e+00
      -24  2    3    3    0    0 +2.4941847050e+01 +5.9589019272e+01 -1.3504863507e+02 1.6974469255e+02 8.0013622977e+01 0.0000e+00 0.0000e+00
        6  2    1    2  501    0 -4.9437452631e+01 -8.5244426386e+01 -2.5228954274e+02 3.2184043954e+02 1.7384067762e+02 0.0000e+00 0.0000e+00
       24  2    5    5    0    0 -3.4118310951e+01 -2.5723080876e+01 -4.2866069515e+01 1.0353389403e+02 8.4000186106e+01 0.0000e+00 0.0000e+00
        5  1    5    5  501    0 -1.5319141680e+01 -5.9521345511e+01 -2.0942347323e+02 2.1830654551e+02 4.7000000000e+00 0.0000e+00 -1.0000e+00
      -13  1    6    6    0    0 -5.3634776351e+01 -1.0637072204e+01 -7.0160636992e-01 5.4683898825e+01 0.0000000000e+00 0.0000e+00 1.0000e+00
       14  1    6    6    0    0 +1.9516465399e+01 -1.5086008672e+01 -4.2164463145e+01 4.8849995206e+01 0.0000000000e+00 0.0000e+00 -1.0000e+00
       -5  1    3    3    0  504 -3.6363012170e+01 -1.6081572105e+01 +1.8802401479e+01 4.4232407993e+01 4.7000000000e+00 0.0000e+00 1.0000e+00
       13  1    4    4    0    0 -6.2340418026e+00 +4.4890547478e+01 -1.9809462715e+01 4.9461493539e+01 0.0000000000e+00 0.0000e+00 -1.0000e+00
      -14  1    4    4    0    0 +3.1175888853e+01 +1.4698471795e+01 -1.1523917236e+02 1.2028319901e+02 0.0000000000e+00 0.0000e+00 1.0000e+00
       21  1    1    2  504  503 +3.4081804136e+01 +2.1073007236e+01 -1.4083116238e+03 1.4088815673e+03 0.0000000000e+00 0.0000e+00 1.0000e+00
       21  1    1    2  505  501 +2.6776813614e+01 +2.0663971983e+01 -4.3524047763e+00 3.4101919488e+01 0.0000000000e+00 0.0000e+00 -1.0000e+00
<mgrwt>
<rscale>  4 0.18614033E+03</rscale>
<asrwt>0</asrwt>
<pdfrwt beam="1">  1       21 0.15200095E-01 0.18615987E+03</pdfrwt>
<pdfrwt beam="2">  1       21 0.28923081E+00 0.18615987E+03</pdfrwt>
<totfact> 0.15204834E+03</totfact>
</mgrwt>
</event>
<event>
14      3 +1.4674046e+01 2.21019700e+02 7.54677100e-03 1.13490200e-01
       21 -1    0    0  504  502 +0.0000000000e+00 +0.0000000000e+00 +1.0125810663e+03 1.0125810663e+03 0.0000000000e+00 0.0000e+00 1.0000e+00
       21 -1    0    0  502  503 -0.0000000000e+00 -0.0000000000e+00 -1.1388465115e+03 1.1388465115e+03 0.0000000000e+00 0.0000e+00 -1.0000e+00
        6  2    1    2  501    0 +1.9386993134e+01 +7.6165484592e+01 -8.4849005705e+01 2.1766005009e+02 1.8438955255e+02 0.0000e+00 0.0000e+00
       24  2    3    3    0    0 -1.4002552486e+01 +9.5301074864e+01 -1.1380435341e+02 1.6927064286e+02 8.0142082158e+01 0.0000e+00 0.0000e+00
       -6  2    1    2    0  505 -6.8692919404e+01 -1.0352058267e+02 -5.5252457619e+02 5.9216820323e+02 1.7304492310e+02 0.0000e+00 0.0000e+00
      -24  2    5    5    0    0 -8.6813738047e+01 -1.2020949255e+02 -5.3582667249e+02 5.6203858708e+02 8.2402689300e+01 0.0000e+00 0.0000e+00
        5  1    3    3  501    0 +3.3389545621e+01 -1.9135590273e+01 +2.8955347702e+01 4.8389407233e+01 4.7000000000e+00 0.0000e+00 -1.0000e+00
      -13  1    4    4    0    0 -3.9386856064e+01 +7.1344971799e+01 -4.7465931885e+01 9.4310360626e+01 0.0000000000e+00 0.0000e+00 1.0000e+00
       14  1    4    4    0    0 +2.5384303578e+01 +2.3956103065e+01 -6.6338421522e+01 7.4960282232e+01 0.0000000000e+00 0.0000e+00 -1.0000e+00
       -5  1    5    5    0  505 +1.8120818643e+01 +1.6688909882e+01 -1.6697903700e+01 3.0129616150e+01 4.7000000000e+00 0.0000e+00 1.0000e+00
       13  1    6    6    0    0 -2.9606320970e+01 -9.4502431166e+01 -4.0533426304e+02 4.1725664588e+02 0.0000000000e+00 0.0000e+00 -1.0000e+00
      -14  1    6    6    0    0 -5.7207417078e+01 -2.5707061383e+01 -1.3049240945e+02 1.4478194120e+02 0.0000000000e+00 0.0000e+00 1.0000e+00
       21  1    1    2  504  501 +3.5775404171e+01 +5.5197234182e+01 +9.2460680331e+02 9.2694355542e+02 0.0000000000e+00 0.0000e+00 1.0000e+00
       21  1    1    2  505  503 +1.3530522099e+01 -2.7842136107e+01 -4.1349866657e+02 4.1465576908e+02 0.0000000000e+00 0.0000e+00 -1.0000e+00
<mgrwt>
<rscale>  4 0.21863852E+03</rscale>
<asrwt>0</asrwt>
<pdfrwt beam="1">  1       21 0.15578170E+00 0.22101973E+03</pdfrwt>
<pdfrwt beam="2">  1       21 0.17520716E+00 0.22101973E+03</pdfrwt>
<totfact> 0.50932059E+01</totfact>
</mgrwt>
</event>
<event>
13      2 +1.4674046e+01 1.88799900e+02 7.54677100e-03 1.16224500e-01
       21 -1    0    0  502  503 +0.0000000000e+00 +0.0000000000e+00 +6.0614774604e+02 6.0614774604e+02 0.0000000000e+00 0.0000e+00 1.0000e+00
        4 -1    0    0  501    0 -0.0000000000e+00 -0.0000000000e+00 -1.3778005038e+02 1.3778005038e+02 0.0000000000e+00 0.0000e+00 1.0000e+00
        6  2    1    2  501    0 -1.1215375767e+02 -6.1468731698e+00 +2.3605618405e+02 3.0676783889e+02 1.6052331775e+02 0.0000e+00 0.0000e+00
       24  2    3    3    0    0 -1.3186495339e+02 +2.3301273210e+01 +2.1266784697e+02 2.6404982310e+02 8.1014694221e+01 0.0000e+00 0.0000e+00
       -6  2    1    2    0  503 +4.6590400209e+01 +1.9938199195e+01 +2.9475958969e+02 3.4557111012e+02 1.7311262016e+02 0.0000e+00 0.0000e+00
      -24  2    5    5    0    0 +7.4057632964e+01 -3.9049922000e+01 +1.8400385290e+02 2.1702940269e+02 7.8961473783e+01 0.0000e+00 0.0000e+00
        5  1    3    3  501    0 +1.9711195718e+01 -2.9448146380e+01 +2.3388337084e+01 4.2718015794e+01 4.7000000000e+00 0.0000e+00 -1.0000e+00
      -13  1    4    4    0    0 -1.2023288123e+01 +2.4223114376e+01 +1.0461203593e+01 2.8995784313e+01 0.0000000000e+00 0.0000e+00 1.0000e+00
       14  1    4    4    0    0 -1.1984166527e+02 -9.2184116560e-01 +2.0220664338e+02 2.3505403879e+02 0.0000000000e+00 0.0000e+00 -1.0000e+00
       -5  1    5    5    0  503 -2.7467232756e+01 +5.8988121196e+01 +1.1075573678e+02 1.2854170742e+02 4.7000000000e+00 0.0000e+00 1.0000e+00
       13  1    6    6    0    0 +3.2760753217e+01 -1.8194003910e+01 +1.2667870721e+01 3.9557093905e+01 0.0000000000e+00 0.0000e+00 -1.0000e+00
      -14  1    6    6    0    0 +4.1296879747e+01 -2.0855918090e+01 +1.7133598218e+02 1.7747230879e+02 0.0000000000e+00 0.0000e+00 1.0000e+00
        4  1    1    2  502    0 +6.5563357461e+01 -1.3791326026e+01 -6.2448078070e+01 9.1588847409e+01 0.0000000000e+00 0.0000e+00 1.0000e+00
<mgrwt>
<rscale>  3 0.18586409E+03</rscale>
<asrwt>0</asrwt>
<pdfrwt beam="1">  1       21 0.93253498E-01 0.18879987E+03</pdfrwt>
<pdfrwt beam="2">  1        4 0.21196931E-01 0.18879987E+03</pdfrwt>
<totfact> 0.82594712E+02</totfact>
</mgrwt>
</event>
<event>
14      3 +1.4674046e+01 1.89384200e+02 7.54677100e-03 1.15909900e-01
       21 -1    0    0  505  502 +0.0000000000e+00 +0.0000000000e+00 +3.8146744009e+02 3.8146744009e+02 0.0000000000e+00 0.0000e+00 1.0000e+00
       21 -1    0    0  501  503 -0.0000000000e+00 -0.0000000000e+00 -2.2432985171e+02 2.2432985171e+02 0.0000000000e+00 0.0000e+00 -1.0000e+00
        6  2    1    2  501    0 -2.9617479874e+01 +6.1019431077e+01 -9.9452030930e+01 2.1040496884e+02 1.7256586677e+02 0.0000e+00 0.0000e+00
       24  2    3    3    0    0 -5.3561431384e+01 +1.0430330473e+01 -2.2053156774e+00 9.8103661900e+01 8.1497523492e+01 0.0000e+00 0.0000e+00
       -6  2    1    2    0  502 +4.8236389644e+01 -7.7805364787e+01 +1.1351214314e+02 2.2622837366e+02 1.7295619774e+02 0.0000e+00 0.0000e+00
      -24  2    5    5    0    0 +7.0751176513e+01 -2.5274073075e+01 +1.2510160768e+02 1.6772317795e+02 8.2680979862e+01 0.0000e+00 0.0000e+00
        5  1    3    3  501    0 +2.3943951509e+01 +5.0589100605e+01 -9.7246715253e+01 1.1230130694e+02 4.7000000000e+00 0.0000e+00 -1.0000e+00
      -13  1    4    4    0    0 +1.4863917403e+01 -1.6298490524e+01 -1.0021864343e+01 2.4228384157e+01 0.0000000000e+00 0.0000e+00 1.0000e+00
       14  1    4    4    0    0 -6.8425348787e+01 +2.6728820997e+01 +7.8165486660e+00 7.3875277743e+01 0.0000000000e+00 0.0000e+00 -1.0000e+00
       -5  1    5    5    0  502 -2.2514786868e+01 -5.2531291712e+01 -1.1589464543e+01 5.8505195710e+01 4.7000000000e+00 0.0000e+00 1.0000e+00
       13  1    6    6    0    0 +6.2754814979e+01 -5.2741665403e+01 +1.0259969221e+02 1.3132610903e+02 0.0000000000e+00 0.0000e+00 -1.0000e+00
      -14  1    6    6    0    0 +7.9963615331e+00 +2.7467592328e+01 +2.2501915470e+01 3.6397068919e+01 0.0000000000e+00 0.0000e+00 1.0000e+00
       21  1    1    2  504  503 -2.3590439626e+01 -7.4664986555e+00 +8.0851170585e-01 2.4757042131e+01 0.0000000000e+00 0.0000e+00 1.0000e+00
       21  1    1    2  505  504 +4.9715298562e+00 +2.4252432365e+01 +1.4226896446e+02 1.4440690716e+02 0.0000000000e+00 0.0000e+00 1.0000e+00
<mgrwt>
<rscale>  4 0.18929506E+03</rscale>
<asrwt>0</asrwt>
<pdfrwt beam="1">  1       21 0.58687298E-01 0.18938422E+03</pdfrwt>
<pdfrwt beam="2">  1       21 0.34512285E-01 0.18938422E+03</pdfrwt>
<totfact> 0.22026707E+04</totfact>
</mgrwt>
</event>
<event>
13      2 +1.4674046e+01 2.88136100e+02 7.54677100e-03 1.09259100e-01
       21 -1    0    0  501  502 +0.0000000000e+00 +0.0000000000e+00 +9.5628383013e+02 9.5628383013e+02 0.0000000000e+00 0.0000e+00 1.0000e+00
       21 -1    0    0  504  503 -0.0000000000e+00 -0.0000000000e+00 -1.3115720435e+02 1.3115720435e+02 0.0000000000e+00 0.0000e+00 -1.0000e+00
        6  2    1    2  501    0 -2.1450370841e+02 +4.3792243200e+01 +2.9567692473e+02 3.9958079515e+02 1.5591781986e+02 0.0000e+00 0.0000e+00
       24  2    3    3    0    0 -2.1947733494e+02 +1.0588182062e+01 +2.6937356035e+02 3.5667154656e+02 7.9812699227e+01 0.0000e+00 0.0000e+00
       -6  2    1    2    0  503 +2.3293692308e+02 -6.1147992518e+01 +1.9966642100e+02 3.5710652850e+02 1.7221993467e+02 0.0000e+00 0.0000e+00
      -24  2    5    5    0    0 +1.2201754794e+02 +3.9211886214e+00 +1.7266022197e+02 2.2562067032e+02 7.8673228592e+01 0.0000e+00 0.0000e+00
        5  1    3    3  501    0 +4.9736265300e+00 +3.3204061138e+01 +2.6303364383e+01 4.2909248592e+01 4.7000000000e+00 0.0000e+00 -1.0000e+00
      -13  1    4    4    0    0 -1.0231997212e+02 +4.1264926459e+01 +1.5370308430e+02 1.8920044655e+02 0.0000000000e+00 0.0000e+00 1.0000e+00
       14  1    4    4    0    0 -1.1715736282e+02 -3.0676744396e+01 +1.1567047605e+02 1.6747110001e+02 0.0000000000e+00 0.0000e+00 -1.0000e+00
       -5  1    5    5    0  503 +1.1091937514e+02 -6.5069181139e+01 +2.7006199031e+01 1.3148585818e+02 4.7000000000e+00 0.0000e+00 1.0000e+00
       13  1    6    6    0    0 +1.9079498683e+01 -2.9271734695e+00 -5.2134099888e+00 1.9994380666e+01 0.0000000000e+00 0.0000e+00 -1.0000e+00
      -14  1    6    6    0    0 +1.0293804925e+02 +6.8483620909e+00 +1.7787363196e+02 2.0562628965e+02 0.0000000000e+00 0.0000e+00 1.0000e+00
       21  1    1    2  504  502 -1.8433214665e+01 +1.7355749317e+01 +3.2978328004e+02 3.3075371084e+02 0.0000000000e+00 0.0000e+00 1.0000e+00
<mgrwt>
<rscale>  3 0.28574727E+03</rscale>
<asrwt>0</asrwt>
<pdfrwt beam="1">  1       21 0.14712058E+00 0.28813611E+03</pdfrwt>
<pdfrwt beam="2">  1       21 0.20178032E-01 0.28813611E+03</pdfrwt>
<totfact> 0.66995005E+03</totfact>
</mgrwt>
</event>
<event>
12      1 +1.4674046e+01 1.77783600e+02 7.54677100e-03 1.17074700e-01
       21 -1    0    0  503  502 +0.0000000000e+00 +0.0000000000e+00 +7.5274918589e+01 7.5274918589e+01 0.0000000000e+00 0.0000e+00 -1.0000e+00
       21 -1    0    0  501  503 -0.0000000000e+00 -0.0000000000e+00 -4.1864473423e+02 4.1864473423e+02 0.0000000000e+00 0.0000e+00 -1.0000e+00
        6  2    1    2  501    0 +4.0016841528e+00 +1.1665224876e+01 -1.4020879792e+02 2.2395405685e+02 1.7419765102e+02 0.0000e+00 0.0000e+00
       24  2    3    3    0    0 +2.0441364597e+01 +7.2295430534e+01 -9.1879040620e+01 1.4455543992e+02 8.2522957056e+01 0.0000e+00 0.0000e+00
       -6  2    1    2    0  502 -4.0016841528e+00 -1.1665224876e+01 -2.0316101772e+02 2.6996559597e+02 1.7735538598e+02 0.0000e+00 0.0000e+00
      -24  2    5    5    0    0 +6.8533594224e+01 -9.0599240258e+00 -1.1159781322e+02 1.5302943979e+02 7.8644782199e+01 0.0000e+00 0.0000e+00
        5  1    3    3  501    0 -1.6439680444e+01 -6.0630205658e+01 -4.8329757298e+01 7.9398616939e+01 4.7000000000e+00 0.0000e+00 -1.0000e+00
      -13  1    4    4    0    0 +7.0324185317e+00 -1.7775513580e+01 -2.5486081669e+01 3.1858502041e+01 0.0000000000e+00 0.0000e+00 1.0000e+00
       14  1    4    4    0    0 +1.3408946065e+01 +9.0070944114e+01 -6.6392958950e+01 1.1269693787e+02 0.0000000000e+00 0.0000e+00 -1.0000e+00
       -5  1    5    5    0  502 -7.2535278376e+01 -2.6053008499e+00 -9.1563204508e+01 1.1693615618e+02 4.7000000000e+00 0.0000e+00 1.0000e+00
       13  1    6    6    0    0 +7.5330572576e+01 -2.8224076526e+01 -1.0363371279e+02 1.3119161592e+02 0.0000000000e+00 0.0000e+00 -1.0000e+00
      -14  1    6    6    0    0 -6.7969783528e+00 +1.9164152500e+01 -7.9641004211e+00 2.1837823868e+01 0.0000000000e+00 0.0000e+00 1.0000e+00
<mgrwt>
<rscale>  2 0.17699086E+03</rscale>
<asrwt>0</asrwt>
<pdfrwt beam="1">  1       21 0.11580757E-01 0.17778364E+03</pdfrwt>
<pdfrwt beam="2">  1       21 0.64406882E-01 0.17778364E+03</pdfrwt>
<totfact> 0.13974225E+05</totfact>
</mgrwt>
</event>
<event>
13      2 +1.4674046e+01 2.32847400e+02 7.54677100e-03 1.12478000e-01
       21 -1    0    0  503  502 +0.0000000000e+00 +0.0000000000e+00 +2.1189524626e+02 2.1189524626e+02 0.0000000000e+00 0.0000e+00 1.0000e+00
       21 -1    0    0  504  503 -0.0000000000e+00 -0.0000000000e+00 -4.2856416605e+02 4.2856416605e+02 0.0000000000e+00 0.0000e+00 -1.0000e+00
        6  2    1    2  501    0 +5.6121502711e+01 -1.6334615938e+02 +6.2868877410e+01 2.5213512298e+02 1.7259210191e+02 0.0000e+00 0.0000e+00
       24  2    3    3    0    0 +3.4253237888e+01 -1.8445857824e+02 +2.8073582181e+01 2.0569421637e+02 7.9521904135e+01 0.0000e+00 0.0000e+00
       -6  2    1    2    0  502 -2.8576440595e+01 +1.0622785023e+02 -2.0206658530e+02 2.8820925369e+02 1.7358772969e+02 0.0000e+00 0.0000e+00
      -24  2    5    5    0    0 -4.7343312956e+00 +2.4933797636e+01 -1.8274850705e+01 8.5777386472e+01 7.9872909702e+01 0.0000e+00 0.0000e+00
        5  1    3    3  501    0 +2.1868264823e+01 +2.1112418866e+01 +3.4795295230e+01 4.6440906611e+01 4.7000000000e+00 0.0000e+00 -1.0000e+00
      -13  1    4    4    0    0 +1.1136492837e+01 -1.3639577832e+02 +5.3088279208e+01 1.4678622280e+02 0.0000000000e+00 0.0000e+00 1.0000e+00
       14  1    4    4    0    0 +2.3116745051e+01 -4.8062799926e+01 -2.5014697027e+01 5.8907993565e+01 0.0000000000e+00 0.0000e+00 -1.0000e+00
       -5  1    5    5    0  502 -2.3842109299e+01 +8.1294052595e+01 -1.8379173459e+02 2.0243186722e+02 4.7000000000e+00 0.0000e+00 1.0000e+00
       13  1    6    6    0    0 +2.2022943972e+01 +3.9197694279e+01 -2.9128269706e+01 5.3571684629e+01 0.0000000000e+00 0.0000e+00 -1.0000e+00
      -14  1    6    6    0    0 -2.6757275268e+01 -1.4263896643e+01 +1.0853419001e+01 3.2205701843e+01 0.0000000000e+00 0.0000e+00 1.0000e+00
       21  1    1    2  504  501 -2.7545062116e+01 +5.7118309147e+01 -7.7471211900e+01 1.0011503563e+02 0.0000000000e+00 0.0000e+00 1.0000e+00
<mgrwt>
<rscale>  3 0.23266183E+03</rscale>
<asrwt>0</asrwt>
<pdfrwt beam="1">  1       21 0.32599269E-01 0.23284737E+03</pdfrwt>
<pdfrwt beam="2">  1       21 0.65932948E-01 0.23284737E+03</pdfrwt>
<totfact> 0.18694782E+04</totfact>
</mgrwt>
</event>
<event>
13      2 +1.4674046e+01 2.72196600e+02 7.54677100e-03 1.10002900e-01
        1 -1    0    0  503    0 +0.0000000000e+00 +0.0000000000e+00 +2.2672361828e+02 2.2672361828e+02 0.0000000000e+00 0.0000e+00 -1.0000e+00
       -1 -1    0    0    0  501 -0.0000000000e+00 -0.0000000000e+00 -6.2967047173e+02 6.2967047173e+02 0.0000000000e+00 0.0000e+00 1.0000e+00
       -6  2    1    2    0  501 -2.0233732207e+02 +5.7089832113e+01 -4.9863248117e+02 5.6831760231e+02 1.7364015949e+02 0.0000e+00 0.0000e+00
      -24  2    3    3    0    0 -7.9882661227e+01 -3.0246736624e+01 -2.7099169080e+02 2.9543440451e+02 8.0925189194e+01 0.0000e+00 0.0000e+00
        6  2    1    2  503    0 +2.0233732207e+02 -5.7089832113e+01 +9.5685627714e+01 2.8807648769e+02 1.7214146095e+02 0.0000e+00 0.0000e+00
       24  2    5    5    0    0 +1.7021618787e+02 +4.4959109829e+00 +6.8036934493e+01 2.0848588755e+02 9.9214802452e+01 0.0000e+00 0.0000e+00
        5  1    5    5  502    0 +1.7018142981e+01 -2.5979411758e+01 -1.0512984706e+00 3.1428367032e+01 4.7000000000e+00 0.0000e+00 -1.0000e+00
      -13  1    6    6    0    0 +1.4236446756e+01 -4.5927702419e+00 -2.3162182318e+01 2.7572751848e+01 0.0000000000e+00 0.0000e+00 1.0000e+00
       14  1    6    6    0    0 +1.5597974111e+02 +9.0886812247e+00 +9.1199116811e+01 1.8091313570e+02 0.0000000000e+00 0.0000e+00 -1.0000e+00
       -5  1    3    3    0  501 -1.2245466084e+02 +8.7336568737e+01 -2.2764079037e+02 2.7288319780e+02 4.7000000000e+00 0.0000e+00 1.0000e+00
       13  1    4    4    0    0 +1.5364220827e+01 -7.1821226387e+00 -6.7152549799e+01 6.9261151533e+01 0.0000000000e+00 0.0000e+00 -1.0000e+00
      -14  1    4    4    0    0 -9.5246882054e+01 -2.3064613986e+01 -2.0383914100e+02 2.2617325298e+02 0.0000000000e+00 0.0000e+00 1.0000e+00
       21  1    5    5  503  502 +1.5102991223e+01 -3.5606331337e+01 +2.8699991692e+01 4.8162233111e+01 0.0000000000e+00 0.0000e+00 1.0000e+00
<mgrwt>
<rscale>  3 0.27219659E+03</rscale>
<asrwt>0</asrwt>
<pdfrwt beam="1">  1        1 0.34880557E-01 0.27219659E+03</pdfrwt>
<pdfrwt beam="2">  1       -1 0.96872378E-01 0.27219659E+03</pdfrwt>
<totfact> 0.13632364E+02</totfact>
</mgrwt>
</event>
<event>
12      1 +1.4674046e+01 1.76182500e+02 7.54677100e-03 1.17155000e-01
        2 -1    0    0  502    0 +0.0000000000e+00 +0.0000000000e+00 +6.5473905934e+02 6.5473905934e+02 0.0000000000e+00 0.0000e+00 -1.0000e+00
       -2 -1    0    0    0  501 -0.0000000000e+00 -0.0000000000e+00 -5.1189589213e+01 5.1189589213e+01 0.0000000000e+00 0.0000e+00 1.0000e+00
        6  2    1    2  502    0 +3.5126620616e+01 +1.5578906455e+01 +2.0615096555e+02 2.7130380000e+02 1.7213642698e+02 0.0000e+00 0.0000e+00
       24  2    3    3    0    0 +3.3943111476e+00 -5.5224476516e+01 +9.7304418292e+01 1.3755134449e+02 7.9943470004e+01 0.0000e+00 0.0000e+00
       -6  2    1    2    0  501 -3.5126620616e+01 -1.5578906455e+01 +3.9739850458e+02 4.3462484856e+02 1.7174575903e+02 0.0000e+00 0.0000e+00
      -24  2    5    5    0    0 -8.3711778310e+01 -2.0363758273e+01 +3.3625527207e+02 3.5624119442e+02 8.0111398236e+01 0.0000e+00 0.0000e+00
        5  1    3    3  502    0 +3.1732309468e+01 +7.0803382971e+01 +1.0884654726e+02 1.3375245551e+02 4.7000000000e+00 0.0000e+00 -1.0000e+00
      -13  1    4    4    0    0 +3.5871540001e+01 -6.7228924153e+00 +2.3309347163e+01 4.3304622497e+01 0.0000000000e+00 0.0000e+00 1.0000e+00
       14  1    4    4    0    0 -3.2477228853e+01 -4.8501584101e+01 +7.3995071130e+01 9.4246721989e+01 0.0000000000e+00 0.0000e+00 -1.0000e+00
       -5  1    5    5    0  501 +4.8585157694e+01 +4.7848518179e+00 +6.1143232504e+01 7.8383654139e+01 4.7000000000e+00 0.0000e+00 1.0000e+00
       13  1    6    6    0    0 -1.7166803271e+01 -3.3206400458e+01 +5.2147201995e+01 6.4161474748e+01 0.0000000000e+00 0.0000e+00 -1.0000e+00
      -14  1    6    6    0    0 -6.6544975039e+01 +1.2842642186e+01 +2.8410807008e+02 2.9207971967e+02 0.0000000000e+00 0.0000e+00 1.0000e+00
<mgrwt>
<rscale>  2 0.17618254E+03</rscale>
<asrwt>0</asrwt>
<pdfrwt beam="1">  1        2 0.10072908E+00 0.17618254E+03</pdfrwt>
<pdfrwt beam="2">  1       -2 0.78753219E-02 0.17618254E+03</pdfrwt>
<totfact> 0.43262872E+03</totfact>
</mgrwt>
</event>
<event>
14      3 +1.4674046e+01 1.96588900e+02 7.54677100e-03 1.15302300e-01
       21 -1    0    0  505  502 +0.0000000000e+00 +0.0000000000e+00 +3.7892862262e+02 3.7892862262e+02 0.0000000000e+00 0.0000e+00 1.0000e+00
       21 -1    0    0  501  503 -0.0000000000e+00 -0.0000000000e+00 -2.0799652104e+03 2.0799652104e+03 0.0000000000e+00 0.0000e+00 -1.0000e+00
        6  2    1    2  501    0 -9.9453499496e+01 -5.5851462702e+01 -4.2949787539e+01 2.1283134505e+02 1.7447668251e+02 0.0000e+00 0.0000e+00
       24  2    3    3    0    0 -8.2294042017e+01 -1.4453304084e+01 +3.6389878276e+01 1.2158921065e+02 8.0489164216e+01 0.0000e+00 0.0000e+00
       -6  2    1    2    0  502 +6.7853387647e+01 -7.1889681823e+01 +2.5233812464e+02 3.2336272702e+02 1.7639930700e+02 0.0000e+00 0.0000e+00
      -24  2    5    5    0    0 +6.7763562013e+01 -8.6511505257e+01 +9.6894262913e+01 1.6716192696e+02 8.0488948074e+01 0.0000e+00 0.0000e+00
        5  1    3    3  501    0 -1.7159457479e+01 -4.1398158619e+01 -7.9339665816e+01 9.1242134399e+01 4.7000000000e+00 0.0000e+00 -1.0000e+00
      -13  1    4    4    0    0 -2.4009864825e+01 -1.3524666921e+01 -2.4803519879e+01 3.7075663482e+01 0.0000000000e+00 0.0000e+00 1.0000e+00
       14  1    4    4    0    0 -5.8284177192e+01 -9.2863716270e-01 +6.1193398155e+01 8.4513547173e+01 0.0000000000e+00 0.0000e+00 -1.0000e+00
       -5  1    5    5    0  502 +8.9825633321e-02 +1.4621823434e+01 +1.5544386173e+02 1.5620080006e+02 4.7000000000e+00 0.0000e+00 1.0000e+00
       13  1    6    6    0    0 +4.6164466124e+01 -9.8881166406e+01 +8.9676179917e+01 1.4124609816e+02 0.0000000000e+00 0.0000e+00 -1.0000e+00
      -14  1    6    6    0    0 +2.1599095889e+01 +1.2369661149e+01 +7.2180829966e+00 2.5915828799e+01 0.0000000000e+00 0.0000e+00 1.0000e+00
       21  1    1    2  504  503 +4.2774893218e+01 +7.7067862618e+01 -1.7821260935e+03 1.7843045032e+03 0.0000000000e+00 0.0000e+00 -1.0000e+00
       21  1    1    2  505  504 -1.1174781368e+01 +5.0673281907e+01 -1.2829883135e+02 1.3839525774e+02 0.0000000000e+00 0.0000e+00 1.0000e+00
<mgrwt>
<rscale>  4 0.19615667E+03</rscale>
<asrwt>0</asrwt>
<pdfrwt beam="1">  1       21 0.58296712E-01 0.19658892E+03</pdfrwt>
<pdfrwt beam="2">  1       21 0.31999464E+00 0.19658892E+03</pdfrwt>
<totfact> 0.71654541E+01</totfact>
</mgrwt>
</event>
<event>
12      1 +1.4674046e+01 1.82424800e+02 7.54677100e-03 1.16590100e-01
       21 -1    0    0  501  502 +0.0000000000e+00 +0.0000000000e+00 +5.6957867783e+01 5.6957867783e+01 0.0000000000e+00 0.0000e+00 -1.0000e+00
       21 -1    0    0  502  503 -0.0000000000e+00 -0.0000000000e+00 -6.2795617611e+02 6.2795617611e+02 0.0000000000e+00 0.0000e+00 -1.0000e+00
       -6  2    1    2    0  503 +1.2107883556e+01 +5.5908585805e+01 -1.8820743923e+02 2.6087669498e+02 1.7135413328e+02 0.0000e+00 0.0000e+00
      -24  2    3    3    0    0 -5.0891031988e+01 +2.5907635097e+01 -6.1691301920e+01 1.1631756036e+02 8.0391886546e+01 0.0000e+00 0.0000e+00
        6  2    1    2  501    0 -1.2107883556e+01 -5.5908585805e+01 -3.8279086910e+02 4.2403734891e+02 1.7322370795e+02 0.0000e+00 0.0000e+00
       24  2    5    5    0    0 -4.9023303841e+01 +1.0234234955e+01 -2.8430904720e+02 2.9970561428e+02 8.0522028192e+01 0.0000e+00 0.0000e+00
        5  1    5    5  501    0 +3.6915420285e+01 -6.6142820760e+01 -9.8481821898e+01 1.2433173463e+02 4.7000000000e+00 0.0000e+00 -1.0000e+00
      -13  1    6    6    0    0 -6.7771623477e+01 -5.3144266138e+00 -2.3611659839e+02 2.4570772091e+02 0.0000000000e+00 0.0000e+00 1.0000e+00
       14  1    6    6    0    0 +1.8748319637e+01 +1.5548661568e+01 -4.8192448808e+01 5.3997893365e+01 0.0000000000e+00 0.0000e+00 -1.0000e+00
       -5  1    3    3    0  503 +6.2998915543e+01 +3.0000950709e+01 -1.2651613731e+02 1.4455913462e+02 4.7000000000e+00 0.0000e+00 1.0000e+00
       13  1    4    4    0    0 -4.6166181048e+01 +3.4174357164e+01 -7.8338465348e+01 9.7139683514e+01 0.0000000000e+00 0.0000e+00 -1.0000e+00
      -14  1    4    4    0    0 -4.7248509398e+00 -8.2667220674e+00 +1.6647163428e+01 1.9177876846e+01 0.0000000000e+00 0.0000e+00 1.0000e+00
<mgrwt>
<rscale>  2 0.18197964E+03</rscale>
<asrwt>0</asrwt>
<pdfrwt beam="1">  1       21 0.87627491E-02 0.18242484E+03</pdfrwt>
<pdfrwt beam="2">  1       21 0.96608640E-01 0.18242484E+03</pdfrwt>
<totfact> 0.91553366E+04</totfact>
</mgrwt>
</event>
<event>
12      1 +1.4674046e+01 2.41946300e+02 7.54677100e-03 1.11887700e-01
       21 -1    0    0  501  502 +0.0000000000e+00 +0.0000000000e+00 +1.0812013245e+03 1.0812013245e+03 0.0000000000e+00 0.0000e+00 -1.0000e+00
       21 -1    0    0  502  503 -0.0000000000e+00 -0.0000000000e+00 -5.5055741810e+01 5.5055741810e+01 0.0000000000e+00 0.0000e+00 -1.0000e+00
       -6  2    1    2    0  503 -1.0613221277e+02 +1.2871178643e+02 +4.1953922048e+02 4.8318027426e+02 1.7210243856e+02 0.0000e+00 0.0000e+00
      -24  2    3    3    0    0 -8.2097332929e+01 +1.6182907187e+02 +3.5262154758e+02 4.0460231939e+02 8.0202621326e+01 0.0000e+00 0.0000e+00
        6  2    1    2  501    0 +1.0613221277e+02 -1.2871178643e+02 +6.0660636217e+02 6.5307679201e+02 1.7523483411e+02 0.0000e+00 0.0000e+00
       24  2    5    5    0    0 +1.0460617673e+02 -1.4755468509e+02 +6.0071996623e+02 6.3272677302e+02 8.2242654102e+01 0.0000e+00 0.0000e+00
        5  1    5    5  501    0 +1.5260360347e+00 +1.8842898660e+01 +5.8863959315e+00 2.0350018992e+01 4.7000000000e+00 0.0000e+00 -1.0000e+00
      -13  1    6    6    0    0 +7.9401635128e+01 -5.7543689213e+01 +3.9117650416e+02 4.0328024156e+02 0.0000000000e+00 0.0000e+00 1.0000e+00
       14  1    6    6    0    0 +2.5204541605e+01 -9.0010995880e+01 +2.0954346208e+02 2.2944653145e+02 0.0000000000e+00 0.0000e+00 -1.0000e+00
       -5  1    3    3    0  503 -2.4034879839e+01 -3.3117285441e+01 +6.6917672905e+01 7.8577954866e+01 4.7000000000e+00 0.0000e+00 1.0000e+00
       13  1    4    4    0    0 -2.8029163505e+01 +1.3011576221e+02 +2.6866125698e+02 2.9982430953e+02 0.0000000000e+00 0.0000e+00 -1.0000e+00
      -14  1    4    4    0    0 -5.4068169424e+01 +3.1713309661e+01 +8.3960290600e+01 1.0477800987e+02 0.0000000000e+00 0.0000e+00 1.0000e+00
<mgrwt>
<rscale>  2 0.24137958E+03</rscale>
<asrwt>0</asrwt>
<pdfrwt beam="1">  1       21 0.16633865E+00 0.24194631E+03</pdfrwt>
<pdfrwt beam="2">  1       21 0.84701149E-02 0.24194631E+03</pdfrwt>
<totfact> 0.23856627E+04</totfact>
</mgrwt>
</event>
<event>
13      2 +1.4674046e+01 2.13368400e+02 7.54677100e-03 1.13909300e-01
       21 -1    0    0  501  502 +0.0000000000e+00 +0.0000000000e+00 +2.8063395732e+02 2.8063395732e+02 0.0000000000e+00 0.0000e+00 -1.0000e+00
       21 -1    0    0  504  503 -0.0000000000e+00 -0.0000000000e+00 -3.4356146916e+02 3.4356146916e+02 0.0000000000e+00 0.0000e+00 1.0000e+00
       -6  2    1    2    0  503 +3.8769862931e+01 -1.4163871187e+01 -1.2509893407e+02 2.1808581731e+02 1.7380438110e+02 0.0000e+00 0.0000e+00
      -24  2    3    3    0    0 +8.5718699165e+00 +5.7568527182e+01 -8.6007079238e+01 1.3086357891e+02 7.9626919632e+01 0.0000e+00 0.0000e+00
        6  2    1    2  501    0 -5.8803355423e+01 +1.6116209857e+02 +7.7588924644e+01 2.5695358665e+02 1.7485436179e+02 0.0000e+00 0.0000e+00
       24  2    5    5    0    0 -5.6501194228e+01 +2.6551723453e+01 +6.4812198056e+01 1.2163696617e+02 8.1838570090e+01 0.0000e+00 0.0000e+00
        5  1    5    5  501    0 -2.3021611947e+00 +1.3461037512e+02 +1.2776726588e+01 1.3531662048e+02 4.7000000000e+00 0.0000e+00 -1.0000e+00
      -13  1    6    6    0    0 -3.4597971114e+01 +4.2118655590e+01 +3.4113867083e+00 5.4613535989e+01 0.0000000000e+00 0.0000e+00 1.0000e+00
       14  1    6    6    0    0 -2.1903223113e+01 -1.5566932137e+01 +6.1400811348e+01 6.7023430180e+01 0.0000000000e+00 0.0000e+00 -1.0000e+00
       -5  1    3    3    0  503 +3.0197993015e+01 -7.1732398369e+01 -3.9091854829e+01 8.7222238402e+01 4.7000000000e+00 0.0000e+00 1.0000e+00
       13  1    4    4    0    0 -3.0819981932e+01 +3.8050360731e+01 -2.3161654759e+01 5.4167919374e+01 0.0000000000e+00 0.0000e+00 -1.0000e+00
      -14  1    4    4    0    0 +3.9391851849e+01 +1.9518166451e+01 -6.2845424479e+01 7.6695659536e+01 0.0000000000e+00 0.0000e+00 1.0000e+00
       21  1    1    2  504  502 +2.0033492491e+01 -1.4699822738e+02 -1.5417502415e+01 1.4915602252e+02 0.0000000000e+00 0.0000e+00 -1.0000e+00
<mgrwt>
<rscale>  3 0.21315315E+03</rscale>
<asrwt>0</asrwt>
<pdfrwt beam="1">  1       21 0.43174455E-01 0.21336837E+03</pdfrwt>
<pdfrwt beam="2">  1       21 0.52855610E-01 0.21336837E+03</pdfrwt>
<totfact> 0.17277390E+04</totfact>
</mgrwt>
</event>
<event>
12      1 +1.4674046e+01 2.35814200e+02 7.54677100e-03 1.12270500e-01
       21 -1    0    0  503  502 +0.0000000000e+00 +0.0000000000e+00 +1.1752543272e+02 1.1752543272e+02 0.0000000000e+00 0.0000e+00 1.0000e+00
       21 -1    0    0  501  503 -0.0000000000e+00 -0.0000000000e+00 -7.2742747883e+02 7.2742747883e+02 0.0000000000e+00 0.0000e+00 1.0000e+00
        6  2    1    2  501    0 +1.0120885025e+02 -1.2365931408e+02 -5.5503077768e+02 6.0283887509e+02 1.7268667530e+02 0.0000e+00 0.0000e+00
       24  2    3    3    0    0 +2.5669739256e+01 -1.2321975236e+02 -3.0239879137e+02 3.3911295485e+02 8.7809590813e+01 0.0000e+00 0.0000e+00
       -6  2    1    2    0  502 -1.0120885025e+02 +1.2365931408e+02 -5.4871268428e+01 2.4211403646e+02 1.7341710764e+02 0.0000e+00 0.0000e+00
      -24  2    5    5    0    0 -1.9817937670e+01 +9.8449410678e+01 +1.6095288518e+01 1.3112591959e+02 8.2764191291e+01 0.0000e+00 0.0000e+00
        5  1    3    3  501    0 +7.5539110994e+01 -4.3956172528e-01 -2.5263198630e+02 2.6372592024e+02 4.7000000000e+00 0.0000e+00 -1.0000e+00
      -13  1    4    4    0    0 +1.7322245489e+01 -2.5250348002e+01 -1.7766943520e+02 1.8028884732e+02 0.0000000000e+00 0.0000e+00 1.0000e+00
       14  1    4    4    0    0 +8.3474937674e+00 -9.7969404357e+01 -1.2472935618e+02 1.5882410754e+02 0.0000000000e+00 0.0000e+00 -1.0000e+00
       -5  1    5    5    0  502 -8.1390912580e+01 +2.5209903406e+01 -7.0966556946e+01 1.1098811686e+02 4.7000000000e+00 0.0000e+00 1.0000e+00
       13  1    6    6    0    0 -1.7664164421e+01 -8.4314253208e+00 +1.4243744658e+01 2.4207352179e+01 0.0000000000e+00 0.0000e+00 -1.0000e+00
      -14  1    6    6    0    0 -2.1537732495e+00 +1.0688083600e+02 +1.8515438599e+00 1.0691856741e+02 0.0000000000e+00 0.0000e+00 1.0000e+00
<mgrwt>
<rscale>  2 0.23567995E+03</rscale>
<asrwt>0</asrwt>
<pdfrwt beam="1">  1       21 0.18080836E-01 0.23581423E+03</pdfrwt>
<pdfrwt beam="2">  1       21 0.11191192E+00 0.23581423E+03</pdfrwt>
<totfact> 0.16988446E+04</totfact>
</mgrwt>
</event>
<event>
13      2 +1.4674046e+01 3.09109800e+02 7.54677100e-03 1.08136500e-01
       21 -1    0    0  504  502 +0.0000000000e+00 +0.0000000000e+00 +5.5296321311e+02 5.5296321311e+02 0.0000000000e+00 0.0000e+00 1.0000e+00
       21 -1    0    0  501  503 -0.0000000000e+00 -0.0000000000e+00 -3.2916871553e+02 3.2916871553e+02 0.0000000000e+00 0.0000e+00 -1.0000e+00
        6  2    1    2  501    0 -2.1675767478e+02 -1.8202944213e+01 -1.6732059409e+02 3.2375061854e+02 1.7176450462e+02 0.0000e+00 0.0000e+00
       24  2    3    3    0    0 -1.2378668135e+02 -6.0653607564e+01 -4.5700219827e+01 1.6481896696e+02 7.7940869825e+01 0.0000e+00 0.0000e+00
       -6  2    1    2    0  502 +2.5769639322e+02 +2.0111092552e+01 +4.0672977173e+02 5.1452429320e+02 1.8026162640e+02 0.0000e+00 0.0000e+00
      -24  2    5    5    0    0 +1.4592764040e+02 -5.1185695914e+01 +1.6973038309e+02 2.4292479694e+02 7.9304491195e+01 0.0000e+00 0.0000e+00
        5  1    3    3  501    0 -9.2970993433e+01 +4.2450663351e+01 -1.2162037426e+02 1.5893165158e+02 4.7000000000e+00 0.0000e+00 -1.0000e+00
      -13  1    4    4    0    0 +1.1195809297e+01 -5.7821744028e+00 -4.7318322118e+00 1.3459937694e+01 0.0000000000e+00 0.0000e+00 1.0000e+00
       14  1    4    4    0    0 -1.3498249064e+02 -5.4871433161e+01 -4.0968387616e+01 1.5135902927e+02 0.0000000000e+00 0.0000e+00 -1.0000e+00
       -5  1    5    5    0  502 +1.1176875283e+02 +7.1296788466e+01 +2.3699938864e+02 2.7159949626e+02 4.7000000000e+00 0.0000e+00 1.0000e+00
       13  1    6    6    0    0 +4.3457350673e+01 -3.1194372459e+01 +1.3756916560e+01 5.5234798396e+01 0.0000000000e+00 0.0000e+00 -1.0000e+00
      -14  1    6    6    0    0 +1.0247028972e+02 -1.9991323455e+01 +1.5597346653e+02 1.8768999854e+02 0.0000000000e+00 0.0000e+00 1.0000e+00
       21  1    1    2  504  503 -4.0938718444e+01 -1.9081483392e+00 -1.5614680066e+01 4.3857016901e+01 0.0000000000e+00 0.0000e+00 -1.0000e+00
<mgrwt>
<rscale>  3 0.30788331E+03</rscale>
<asrwt>0</asrwt>
<pdfrwt beam="1">  1       21 0.85071264E-01 0.30910981E+03</pdfrwt>
<pdfrwt beam="2">  1       21 0.50641341E-01 0.30910981E+03</pdfrwt>
<totfact> 0.41165488E+03</totfact>
</mgrwt>
</event>
<event>
12      1 +1.4674046e+01 2.15741400e+02 7.54677100e-03 1.13738100e-01
       21 -1    0    0  503  502 +0.0000000000e+00 +0.0000000000e+00 +8.0687396959e+01 8.0687396959e+01 0.0000000000e+00 0.0000e+00 1.0000e+00
       21 -1    0    0  501  503 -0.0000000000e+00 -0.0000000000e+00 -9.8936557968e+02 9.8936557968e+02 0.0000000000e+00 0.0000e+00 1.0000e+00
        6  2    1    2  501    0 +1.2478171475e+02 +2.7305613285e+01 -8.0055585547e+02 8.2873409187e+02 1.7203035911e+02 0.0000e+00 0.0000e+00
       24  2    3    3    0    0 +9.5215944608e+01 -4.6611472670e+01 -5.4534580611e+02 5.6135396985e+02 8.0483077302e+01 0.0000e+00 0.0000e+00
       -6  2    1    2    0  502 -1.2478171475e+02 -2.7305613285e+01 -1.0812232725e+02 2.4131888476e+02 1.7386285871e+02 0.0000e+00 0.0000e+00
      -24  2    5    5    0    0 -4.7204979213e+01 +1.6860801715e+01 -1.2139748127e+02 1.5094664442e+02 7.4397206301e+01 0.0000e+00 0.0000e+00
        5  1    3    3  501    0 +2.9565770142e+01 +7.3917085955e+01 -2.5521004936e+02 2.6738012202e+02 4.7000000000e+00 0.0000e+00 -1.0000e+00
      -13  1    4    4    0    0 +8.2414500863e+01 -2.1865808446e+01 -5.0605305290e+02 5.1318608309e+02 0.0000000000e+00 0.0000e+00 1.0000e+00
       14  1    4    4    0    0 +1.2801443745e+01 -2.4745664223e+01 -3.9292753216e+01 4.8167886762e+01 0.0000000000e+00 0.0000e+00 -1.0000e+00
       -5  1    5    5    0  502 -7.7576735538e+01 -4.4166415000e+01 +1.3275154019e+01 9.0372240344e+01 4.7000000000e+00 0.0000e+00 1.0000e+00
       13  1    6    6    0    0 +1.2672175996e+01 +7.4948889241e+00 +5.8924877417e-01 1.4734470421e+01 0.0000000000e+00 0.0000e+00 -1.0000e+00
      -14  1    6    6    0    0 -5.9877155209e+01 +9.3659127911e+00 -1.2198673004e+02 1.3621217400e+02 0.0000000000e+00 0.0000e+00 1.0000e+00
<mgrwt>
<rscale>  2 0.21537198E+03</rscale>
<asrwt>0</asrwt>
<pdfrwt beam="1">  1       21 0.12413446E-01 0.21574143E+03</pdfrwt>
<pdfrwt beam="2">  1       21 0.15221009E+00 0.21574143E+03</pdfrwt>
<totfact> 0.15632078E+04</totfact>
</mgrwt>
</event>
<event>
13      2 +1.4674046e+01 3.13087100e+02 7.54677100e-03 1.07890900e-01
       21 -1    0    0  501  503 +0.0000000000e+00 +0.0000000000e+00 +1.2366645365e+03 1.2366645365e+03 0.0000000000e+00 0.0000e+00 1.0000e+00
        2 -1    0    0  503    0 -0.0000000000e+00 -0.0000000000e+00 -2.1981856329e+02 2.1981856329e+02 0.0000000000e+00 0.0000e+00 -1.0000e+00
       -6  2    1    2    0  502 -1.3248573260e+02 +2.0790173837e+02 +1.4762419619e+02 3.3518798139e+02 1.7257600472e+02 0.0000e+00 0.0000e+00
      -24  2    3    3    0    0 -1.3260460482e+00 +8.2777927516e+01 +8.0308288968e+01 1.4176525060e+02 8.2425853465e+01 0.0000e+00 0.0000e+00
        6  2    1    2  501    0 +1.5140142673e+02 -2.1722969800e+02 +9.6899075397e+02 1.0193212831e+03 1.7309437677e+02 0.0000e+00 0.0000e+00
       24  2    5    5    0    0 +1.6496827440e+02 -1.6027694954e+02 +6.3475025484e+02 6.7995941702e+02 8.0831248104e+01 0.0000e+00 0.0000e+00
        5  1    5    5  501    0 -1.3566847667e+01 -5.6952748457e+01 +3.3424049913e+02 3.3936186612e+02 4.7000000000e+00 0.0000e+00 -1.0000e+00
      -13  1    6    6    0    0 +1.0447549600e+02 -1.3123926099e+02 +5.2671507182e+02 5.5278172887e+02 0.0000000000e+00 0.0000e+00 1.0000e+00
       14  1    6    6    0    0 +6.0492778394e+01 -2.9037688555e+01 +1.0803518302e+02 1.2717768815e+02 0.0000000000e+00 0.0000e+00 -1.0000e+00
       -5  1    3    3    0  502 -1.3115968655e+02 +1.2512381085e+02 +6.7315907224e+01 1.9342273078e+02 4.7000000000e+00 0.0000e+00 1.0000e+00
       13  1    4    4    0    0 -3.6942460126e+01 +6.6037540517e+01 +4.0656712607e+01 8.5899187410e+01 0.0000000000e+00 0.0000e+00 -1.0000e+00
      -14  1    4    4    0    0 +3.5616414078e+01 +1.6740386999e+01 +3.9651576361e+01 5.5866063192e+01 0.0000000000e+00 0.0000e+00 1.0000e+00
        2  1    1    2  502    0 -1.8915694129e+01 +9.3279596314e+00 -9.9768976953e+01 1.0197383526e+02 0.0000000000e+00 0.0000e+00 -1.0000e+00
<mgrwt>
<rscale>  3 0.31301547E+03</rscale>
<asrwt>0</asrwt>
<pdfrwt beam="1">  1       21 0.19025608E+00 0.31308707E+03</pdfrwt>
<pdfrwt beam="2">  1        2 0.33818241E-01 0.31308707E+03</pdfrwt>
<totfact> 0.27324268E+02</totfact>
</mgrwt>
</event>
<event>
13      2 +1.4674046e+01 2.04249800e+02 7.54677100e-03 1.15117600e-01
       21 -1    0    0  503  502 +0.0000000000e+00 +0.0000000000e+00 +2.5970476346e+03 2.5970476346e+03 0.0000000000e+00 0.0000e+00 -1.0000e+00
       21 -1    0    0  501  503 -0.0000000000e+00 -0.0000000000e+00 -9.9160268484e+01 9.9160268484e+01 0.0000000000e+00 0.0000e+00 -1.0000e+00
        6  2    1    2  501    0 -8.3134993032e+01 -1.0468710862e+02 +2.5921427557e+02 3.3860910321e+02 1.7202693492e+02 0.0000e+00 0.0000e+00
       24  2    3    3    0    0 -1.0246968664e+02 -8.6501543816e+01 +1.2030897685e+02 1.9711239952e+02 7.9978086808e+01 0.0000e+00 0.0000e+00
       -6  2    1    2    0  504 -1.2486569515e+02 +4.3988278982e+01 +1.7122081520e+02 2.7882330814e+02 1.7578241975e+02 0.0000e+00 0.0000e+00
      -24  2    5    5    0    0 -9.7930253094e+01 +9.1676557555e+01 +1.5678732570e+02 2.2198929041e+02 8.1866072838e+01 0.0000e+00 0.0000e+00
        5  1    3    3  501    0 +1.9334693606e+01 -1.8185564804e+01 +1.3890529871e+02 1.4149670369e+02 4.7000000000e+00 0.0000e+00 -1.0000e+00
      -13  1    4    4    0    0 -1.0372529814e+02 -9.9051140739e+01 +1.0856390342e+02 1.7987825628e+02 0.0000000000e+00 0.0000e+00 1.0000e+00
       14  1    4    4    0    0 +1.2556115027e+00 +1.2549596923e+01 +1.1745073434e+01 1.7234143238e+01 0.0000000000e+00 0.0000e+00 -1.0000e+00
       -5  1    5    5    0  504 -2.6935442059e+01 -4.7688278572e+01 +1.4433489502e+01 5.6834017730e+01 4.7000000000e+00 0.0000e+00 1.0000e+00
       13  1    6    6    0    0 -6.4747811864e+01 +2.4333071708e+01 +3.1666189188e+01 7.6073155959e+01 0.0000000000e+00 0.0000e+00 -1.0000e+00
      -14  1    6    6    0    0 -3.3182441230e+01 +6.7343485846e+01 +1.2512113651e+02 1.4591613445e+02 0.0000000000e+00 0.0000e+00 1.0000e+00
       21  1    1    2  504  502 +2.0800068819e+02 +6.0698829638e+01 +2.0674522753e+03 2.0787754917e+03 0.0000000000e+00 0.0000e+00 -1.0000e+00
<mgrwt>
<rscale>  3 0.19830636E+03</rscale>
<asrwt>0</asrwt>
<pdfrwt beam="1">  1       21 0.39954574E+00 0.20424978E+03</pdfrwt>
<pdfrwt beam="2">  1       21 0.15255428E-01 0.20424978E+03</pdfrwt>
<totfact> 0.32734533E+02</totfact>
</mgrwt>
</event>
<event>
14      3 +1.4674046e+01 2.22074000e+02 7.54677100e-03 1.13252800e-01
       21 -1    0    0  505  502 +0.0000000000e+00 +0.0000000000e+00 +2.3273927353e+03 2.3273927353e+03 0.0000000000e+00 0.0000e+00 1.0000e+00
       21 -1    0    0  504  503 -0.0000000000e+00 -0.0000000000e+00 -3.6702324525e+01 3.6702324525e+01 0.0000000000e+00 0.0000e+00 -1.0000e+00
        6  2    1    2  501    0 +1.3113672500e+01 +1.2824403273e+02 +6.4540496140e+02 6.8085451367e+02 1.7434679306e+02 0.0000e+00 0.0000e+00
       24  2    3    3    0    0 -1.5681463412e+00 -7.6147325688e+00 +2.2229441724e+02 2.3619983587e+02 7.9467674516e+01 0.0000e+00 0.0000e+00
       -6  2    1    2    0  502 -6.2279838811e+01 -1.2993627538e+02 +1.5266605067e+03 1.5431835474e+03 1.7309229991e+02 0.0000e+00 0.0000e+00
      -24  2    5    5    0    0 -4.5285268169e+01 -7.9014935563e+01 +4.8160723025e+02 4.9674184387e+02 8.0702042527e+01 0.0000e+00 0.0000e+00
        5  1    3    3  501    0 +1.4681818841e+01 +1.3585876530e+02 +4.2311054416e+02 4.4465467780e+02 4.7000000000e+00 0.0000e+00 -1.0000e+00
      -13  1    4    4    0    0 +3.5236530209e+01 -1.3999275513e+01 +1.5129368273e+02 1.5597234117e+02 0.0000000000e+00 0.0000e+00 1.0000e+00
       14  1    4    4    0    0 -3.6804676551e+01 +6.3845429442e+00 +7.1000734513e+01 8.0227494701e+01 0.0000000000e+00 0.0000e+00 -1.0000e+00
       -5  1    5    5    0  502 -1.6994570642e+01 -5.0921339813e+01 +1.0450532764e+03 1.0464417035e+03 4.7000000000e+00 0.0000e+00 1.0000e+00
       13  1    6    6    0    0 -3.3785464800e+01 +7.3223361072e+00 +1.4027733503e+02 1.4447423632e+02 0.0000000000e+00 0.0000e+00 -1.0000e+00
      -14  1    6    6    0    0 -1.1499803369e+01 -8.6337271671e+01 +3.4132989522e+02 3.5226760755e+02 0.0000000000e+00 0.0000e+00 1.0000e+00
       21  1    1    2  504  501 +3.1053634717e+01 +2.6264958253e+01 +4.6735615485e+01 6.1954773956e+01 0.0000000000e+00 0.0000e+00 1.0000e+00
       21  1    1    2  505  503 +1.8112531595e+01 -2.4572715609e+01 +7.1889327174e+01 7.8102224775e+01 0.0000000000e+00 0.0000e+00 1.0000e+00
<mgrwt>
<rscale>  4 0.22182768E+03</rscale>
<asrwt>0</asrwt>
<pdfrwt beam="1">  1       21 0.35806030E+00 0.22207397E+03</pdfrwt>
<pdfrwt beam="2">  1       21 0.56465133E-02 0.22207397E+03</pdfrwt>
<totfact> 0.33028785E+03</totfact>
</mgrwt>
</event>
<event>
13      3 +1.4674046e+01 4.49870200e+02 7.54677100e-03 1.05264000e-01
       21 -1    0    0  505  502 +0.0000000000e+00 +0.0000000000e+00 +5.3407830126e+02 5.3407830126e+02 0.0000000000e+00 0.0000e+00 -1.0000e+00
       21 -1    0    0  504  503 -0.0000000000e+00 -0.0000000000e+00 -1.3274009586e+03 1.3274009586e+03 0.0000000000e+00 0.0000e+00 -1.0000e+00
      -24  2    1    2    0    0 -1.1221727456e+02 -1.6010981795e+02 -5.2332418878e+00 2.1156839554e+02 8.0659337071e+01 0.0000e+00 0.0000e+00
        6  2    1    2  501    0 +1.0444541045e+02 -4.4146263121e+01 +9.1969408849e+01 2.2636143679e+02 1.7298378997e+02 0.0000e+00 0.0000e+00
       24  2    4    4    0    0 +6.6386215323e+01 -3.3920643972e+01 +1.2210349688e+02 1.7652953053e+02 1.0341987974e+02 0.0000e+00 0.0000e+00
        5  1    4    4  501    0 +3.8059195122e+01 -1.0225619149e+01 -3.0134088029e+01 4.9831906262e+01 4.7000000000e+00 0.0000e+00 -1.0000e+00
      -13  1    5    5    0    0 +3.0957874118e+01 -4.4824767019e+01 +6.1822901946e+00 5.4825818921e+01 0.0000000000e+00 0.0000e+00 1.0000e+00
       14  1    5    5    0    0 +3.5428341205e+01 +1.0904123048e+01 +1.1592120668e+02 1.2170371161e+02 0.0000000000e+00 0.0000e+00 -1.0000e+00
       -5  1    1    2    0  503 -6.0946169873e+01 +2.0678856924e+02 +1.9696690057e+02 2.9205136177e+02 4.7000000000e+00 0.0000e+00 1.0000e+00
       13  1    3    3    0    0 -3.1668873528e+01 -1.1339491839e+02 +5.3416459102e+00 1.1785524277e+02 0.0000000000e+00 0.0000e+00 -1.0000e+00
      -14  1    3    3    0    0 -8.0548401037e+01 -4.6714899561e+01 -1.0574887798e+01 9.3713152773e+01 0.0000000000e+00 0.0000e+00 1.0000e+00
       21  1    1    2  504  502 -1.1975011846e+01 -2.2121360207e+01 -1.0404648149e+03 1.0407688439e+03 0.0000000000e+00 0.0000e+00 -1.0000e+00
       21  1    1    2  505  501 +8.0693045839e+01 +1.9588872042e+01 -3.6560909975e+01 9.0729221824e+01 0.0000000000e+00 0.0000e+00 1.0000e+00
<mgrwt>
<rscale>  4 0.37541903E+03</rscale>
<asrwt>0</asrwt>
<pdfrwt beam="1">  1       21 0.82165893E-01 0.44987019E+03</pdfrwt>
<pdfrwt beam="2">  1       21 0.20421553E+00 0.44987019E+03</pdfrwt>
<totfact> 0.13072789E+02</totfact>
</mgrwt>
</event>
<event>
13      2 +1.4674046e+01 2.69267500e+02 7.54677100e-03 1.10184100e-01
       21 -1    0    0  504  502 +0.0000000000e+00 +0.0000000000e+00 +3.1803084225e+02 3.1803084225e+02 0.0000000000e+00 0.0000e+00 -1.0000e+00
       21 -1    0    0  501  503 -0.0000000000e+00 -0.0000000000e+00 -6.4523060938e+02 6.4523060938e+02 0.0000000000e+00 0.0000e+00 -1.0000e+00
        6  2    1    2  501    0 -1.5196367786e+02 -1.5156600896e+02 -4.4217769721e+02 5.2085505704e+02 1.7234749803e+02 0.0000e+00 0.0000e+00
       24  2    3    3    0    0 -1.2506841515e+02 -4.6378378793e+01 -3.2776049857e+02 3.6305398594e+02 8.1167664732e+01 0.0000e+00 0.0000e+00
       -6  2    1    2    0  502 +1.0842742705e+01 +2.0362228114e+02 +1.1595393206e+02 2.9198722563e+02 1.7387244497e+02 0.0000e+00 0.0000e+00
      -24  2    5    5    0    0 +6.6915085409e+01 +1.6474946227e+02 +1.0824506639e+02 2.2316339056e+02 8.0404542867e+01 0.0000e+00 0.0000e+00
        5  1    3    3  501    0 -2.6895262709e+01 -1.0518763016e+02 -1.1441719864e+02 1.5780107110e+02 4.7000000000e+00 0.0000e+00 -1.0000e+00
      -13  1    4    4    0    0 -1.2683168086e+02 -5.8798342733e+01 -3.1725900514e+02 3.4669409675e+02 0.0000000000e+00 0.0000e+00 1.0000e+00
       14  1    4    4    0    0 +1.7632657036e+00 +1.2419963940e+01 -1.0501493427e+01 1.6359889193e+01 0.0000000000e+00 0.0000e+00 -1.0000e+00
       -5  1    5    5    0  502 -5.6072342704e+01 +3.8872818871e+01 +7.7088656742e+00 6.8823835066e+01 4.7000000000e+00 0.0000e+00 1.0000e+00
       13  1    6    6    0    0 +4.9684493552e+01 +1.2934713532e+02 +1.1867091396e+02 1.8243359377e+02 0.0000000000e+00 0.0000e+00 -1.0000e+00
      -14  1    6    6    0    0 +1.7230591857e+01 +3.5402326947e+01 -1.0425847567e+01 4.0729796789e+01 0.0000000000e+00 0.0000e+00 1.0000e+00
       21  1    1    2  504  503 +1.4112093516e+02 -5.2056272186e+01 -9.7600198240e-01 1.5041916897e+02 0.0000000000e+00 0.0000e+00 -1.0000e+00
<mgrwt>
<rscale>  3 0.26902163E+03</rscale>
<asrwt>0</asrwt>
<pdfrwt beam="1">  1       21 0.48927822E-01 0.26926751E+03</pdfrwt>
<pdfrwt beam="2">  1       21 0.99266247E-01 0.26926751E+03</pdfrwt>
<totfact> 0.31482507E+03</totfact>
</mgrwt>
</event>
<event>
13      2 +1.4674046e+01 2.22160300e+02 7.54677100e-03 1.13260500e-01
       21 -1    0    0  501  503 +0.0000000000e+00 +0.0000000000e+00 +5.7162978374e+02 5.7162978374e+02 0.0000000000e+00 0.0000e+00 -1.0000e+00
        2 -1    0    0  503    0 -0.0000000000e+00 -0.0000000000e+00 -5.8822230435e+02 5.8822230435e+02 0.0000000000e+00 0.0000e+00 -1.0000e+00
        6  2    1    2  501    0 -1.1893755257e+02 +7.6190598243e+01 +5.1380601147e+02 5.5961678981e+02 1.7094790242e+02 0.0000e+00 0.0000e+00
       24  2    3    3    0    0 -1.0867870427e+02 -8.3670581412e+00 +2.8005196886e+02 3.1078294232e+02 7.9220348073e+01 0.0000e+00 0.0000e+00
       -6  2    1    2    0  502 +1.0552472855e+02 -3.8332366703e+01 -2.8679658343e+02 3.5334451489e+02 1.7319130250e+02 0.0000e+00 0.0000e+00
      -24  2    5    5    0    0 +8.4800131798e+01 +3.2412128846e+01 -2.3035374180e+02 2.6038120528e+02 8.0584845078e+01 0.0000e+00 0.0000e+00
        5  1    3    3  501    0 -1.0258848294e+01 +8.4557656384e+01 +2.3375404261e+02 2.4883384749e+02 4.7000000000e+00 0.0000e+00 -1.0000e+00
      -13  1    4    4    0    0 -4.8395726684e+01 +3.4745275305e+01 +1.0571666248e+02 1.2134823132e+02 0.0000000000e+00 0.0000e+00 1.0000e+00
       14  1    4    4    0    0 -6.0282977589e+01 -4.3112333446e+01 +1.7433530638e+02 1.8943471100e+02 0.0000000000e+00 0.0000e+00 -1.0000e+00
       -5  1    5    5    0  502 +2.0724596754e+01 -7.0744495548e+01 -5.6442841629e+01 9.2963309602e+01 4.7000000000e+00 0.0000e+00 1.0000e+00
       13  1    6    6    0    0 +7.2962887835e+01 -3.3004913496e+00 -1.9699510587e+02 2.1009890048e+02 0.0000000000e+00 0.0000e+00 -1.0000e+00
      -14  1    6    6    0    0 +1.1837243964e+01 +3.5712620195e+01 -3.3358635922e+01 5.0282304804e+01 0.0000000000e+00 0.0000e+00 1.0000e+00
        2  1    1    2  502    0 +1.3412824015e+01 -3.7858231540e+01 -2.4360194865e+02 2.4689078340e+02 0.0000000000e+00 0.0000e+00 -1.0000e+00
<mgrwt>
<rscale>  3 0.22172295E+03</rscale>
<asrwt>0</asrwt>
<pdfrwt beam="1">  1       21 0.87943044E-01 0.22216035E+03</pdfrwt>
<pdfrwt beam="2">  1        2 0.90495738E-01 0.22216035E+03</pdfrwt>
<totfact> 0.70700771E+02</totfact>
</mgrwt>
</event>
<event>
13      2 +1.4674046e+01 2.59367700e+02 7.54677100e-03 1.10776900e-01
       21 -1    0    0  504  502 +0.0000000000e+00 +0.0000000000e+00 +6.0429001268e+02 6.0429001268e+02 0.0000000000e+00 0.0000e+00 1.0000e+00
       21 -1    0    0  502  503 -0.0000000000e+00 -0.0000000000e+00 -3.5279581886e+02 3.5279581886e+02 0.0000000000e+00 0.0000e+00 1.0000e+00
        6  2    1    2  501    0 -1.2323014891e+02 -7.4619230968e+01 +1.5381900444e+02 2.7243552346e+02 1.7264741263e+02 0.0000e+00 0.0000e+00
       24  2    3    3    0    0 -3.7565693054e+01 -1.0064785013e+02 +1.2231315545e+02 1.7740607259e+02 7.0506989482e+01 0.0000e+00 0.0000e+00
       -6  2    1    2    0  503 +1.4586614457e+02 +1.4614180843e+02 -2.2584828948e+02 3.5254293273e+02 1.7505630310e+02 0.0000e+00 0.0000e+00
      -24  2    5    5    0    0 +9.8138171149e+01 +1.7387187557e+02 -1.7845969258e+02 2.7964104534e+02 8.0552607725e+01 0.0000e+00 0.0000e+00
        5  1    3    3  501    0 -8.5664455859e+01 +2.6028619159e+01 +3.1505848994e+01 9.5029450876e+01 4.7000000000e+00 0.0000e+00 -1.0000e+00
      -13  1    4    4    0    0 -9.8171766581e+00 -5.0569852396e+01 +1.0603332389e+02 1.1788448882e+02 0.0000000000e+00 0.0000e+00 1.0000e+00
       14  1    4    4    0    0 -2.7748516395e+01 -5.0077997731e+01 +1.6279831558e+01 5.9521583769e+01 0.0000000000e+00 0.0000e+00 -1.0000e+00
       -5  1    5    5    0  503 +4.7727973418e+01 -2.7730067135e+01 -4.7388596894e+01 7.2901887394e+01 4.7000000000e+00 0.0000e+00 1.0000e+00
       13  1    6    6    0    0 +2.8273308087e+01 +1.1359869016e+01 -3.2151767869e+00 3.0639254821e+01 0.0000000000e+00 0.0000e+00 -1.0000e+00
      -14  1    6    6    0    0 +6.9864863063e+01 +1.6251200655e+02 -1.7524451580e+02 2.4900179052e+02 0.0000000000e+00 0.0000e+00 1.0000e+00
       21  1    1    2  504  501 -2.2635995655e+01 -7.1522577464e+01 +3.2352347886e+02 3.3210737534e+02 0.0000000000e+00 0.0000e+00 1.0000e+00
<mgrwt>
<rscale>  3 0.25896186E+03</rscale>
<asrwt>0</asrwt>
<pdfrwt beam="1">  1       21 0.92967694E-01 0.25936774E+03</pdfrwt>
<pdfrwt beam="2">  1       21 0.54276280E-01 0.25936774E+03</pdfrwt>
<totfact> 0.29724893E+03</totfact>
</mgrwt>
</event>
<event>
13      2 +1.4674046e+01 2.55433500e+02 7.54677100e-03 1.11031400e-01
        2 -1    0    0  501    0 -0.0000000000e+00 +0.0000000000e+00 +1.1311805063e+03 1.1311805063e+03 0.0000000000e+00 0.0000e+00 1.0000e+00
       21 -1    0    0  502  503 +0.0000000000e+00 -0.0000000000e+00 -1.6688141325e+02 1.6688141325e+02 0.0000000000e+00 0.0000e+00 -1.0000e+00
        6  2    1    2  501    0 +3.2520181835e+01 +2.0672639926e+02 +9.1387141527e+01 2.8932775684e+02 1.7766703370e+02 0.0000e+00 0.0000e+00
       24  2    3    3    0    0 -4.6765420237e+01 +1.1424380180e+02 +7.9486532609e+01 1.6684121872e+02 7.9241609125e+01 0.0000e+00 0.0000e+00
       -6  2    1    2    0  503 +4.3793615436e+00 -1.5712650009e+02 +1.3970719632e+02 2.7292784352e+02 1.7396433896e+02 0.0000e+00 0.0000e+00
      -24  2    5    5    0    0 -1.7862111366e+01 -1.0309325032e+02 +1.2535307730e+01 1.3289550995e+02 8.0974127608e+01 0.0000e+00 0.0000e+00
        5  1    3    3  501    0 +7.9285602072e+01 +9.2482597455e+01 +1.1900608918e+01 1.2248653812e+02 4.7000000000e+00 0.0000e+00 -1.0000e+00
      -13  1    4    4    0    0 -1.8655141498e+01 +8.9958326671e+00 +4.9794712613e+01 5.3930072445e+01 0.0000000000e+00 0.0000e+00 1.0000e+00
       14  1    4    4    0    0 -2.8110278739e+01 +1.0524796914e+02 +2.9691819996e+01 1.1291114627e+02 0.0000000000e+00 0.0000e+00 -1.0000e+00
       -5  1    5    5    0  503 +2.2241472910e+01 -5.4033249765e+01 +1.2717188859e+02 1.4003233357e+02 4.7000000000e+00 0.0000e+00 1.0000e+00
       13  1    6    6    0    0 -6.5052744524e+00 -1.1528087076e+02 +8.6382448865e+00 1.1578694673e+02 0.0000000000e+00 0.0000e+00 -1.0000e+00
      -14  1    6    6    0    0 -1.1356836914e+01 +1.2187620440e+01 +3.8970628439e+00 1.7108563221e+01 0.0000000000e+00 0.0000e+00 1.0000e+00
        2  1    1    2  502    0 -3.6899543378e+01 -4.9599899172e+01 +7.3320475518e+02 7.3580631916e+02 0.0000000000e+00 0.0000e+00 1.0000e+00
<mgrwt>
<rscale>  3 0.25479074E+03</rscale>
<asrwt>0</asrwt>
<pdfrwt beam="2">  1       21 0.25674064E-01 0.25543351E+03</pdfrwt>
<pdfrwt beam="1">  1        2 0.17402777E+00 0.25543351E+03</pdfrwt>
<totfact> 0.39243157E+03</totfact>
</mgrwt>
</event>
<event>
12      1 +1.4674046e+01 5.65669800e+02 7.54677100e-03 9.97960100e-02
       21 -1    0    0  503  502 +0.0000000000e+00 +0.0000000000e+00 +9.6139600365e+02 9.6139600365e+02 0.0000000000e+00 0.0000e+00 -1.0000e+00
       21 -1    0    0  501  503 -0.0000000000e+00 -0.0000000000e+00 -7.4252031629e+02 7.4252031629e+02 0.0000000000e+00 0.0000e+00 1.0000e+00
        6  2    1    2  501    0 -5.1284585940e+02 -1.6341875886e+02 -5.2366063181e+02 7.7045902359e+02 1.7225006089e+02 0.0000e+00 0.0000e+00
       24  2    3    3    0    0 -2.1220565238e+02 -4.3125199768e+01 -2.9224794047e+02 3.7242762012e+02 8.0015322047e+01 0.0000e+00 0.0000e+00
       -6  2    1    2    0  502 +5.1284585940e+02 +1.6341875886e+02 +7.4253631917e+02 9.3345729634e+02 1.7397060830e+02 0.0000e+00 0.0000e+00
      -24  2    5    5    0    0 +4.9023593460e+02 +1.8884579727e+02 +6.9298848056e+02 8.7316781722e+02 7.8708297684e+01 0.0000e+00 0.0000e+00
        5  1    3    3  501    0 -3.0064020702e+02 -1.2029355909e+02 -2.3141269134e+02 3.9803140348e+02 4.7000000000e+00 0.0000e+00 -1.0000e+00
      -13  1    4    4    0    0 -1.7872700002e+02 -6.0072879925e+01 -2.6824538206e+02 3.2788363246e+02 0.0000000000e+00 0.0000e+00 1.0000e+00
       14  1    4    4    0    0 -3.3478652356e+01 +1.6947680157e+01 -2.4002558411e+01 4.4543987659e+01 0.0000000000e+00 0.0000e+00 -1.0000e+00
       -5  1    5    5    0  502 +2.2609924804e+01 -2.5427038406e+01 +4.9547838620e+01 6.0289479128e+01 4.7000000000e+00 0.0000e+00 1.0000e+00
       13  1    6    6    0    0 +3.6244303249e+02 +1.7458952141e+02 +5.1178232588e+02 6.5097434809e+02 0.0000000000e+00 0.0000e+00 -1.0000e+00
      -14  1    6    6    0    0 +1.2779290210e+02 +1.4256275853e+01 +1.8120615467e+02 2.2219346912e+02 0.0000000000e+00 0.0000e+00 1.0000e+00
<mgrwt>
<rscale>  2 0.56553807E+03</rscale>
<asrwt>0</asrwt>
<pdfrwt beam="1">  1       21 0.14790708E+00 0.56566981E+03</pdfrwt>
<pdfrwt beam="2">  1       21 0.11423389E+00 0.56566981E+03</pdfrwt>
<totfact> 0.14191113E+02</totfact>
</mgrwt>
</event>
<event>
13      2 +1.4674046e+01 2.77752800e+02 7.54677100e-03 1.09693600e-01
       21 -1    0    0  503  502 +0.0000000000e+00 +0.0000000000e+00 +3.0891348955e+03 3.0891348955e+03 0.0000000000e+00 0.0000e+00 1.0000e+00
       21 -1    0    0  501  503 -0.0000000000e+00 -0.0000000000e+00 -6.6231436687e+01 6.6231436687e+01 0.0000000000e+00 0.0000e+00 1.0000e+00
        6  2    1    2  501    0 -2.1255047392e+02 +4.4380148939e+01 +2.8387897352e+02 3.9704342802e+02 1.7294192824e+02 0.0000e+00 0.0000e+00
       24  2    3    3    0    0 -1.8655926643e+02 +9.1400585881e+01 +2.1435669620e+02 3.0905535269e+02 8.0049927090e+01 0.0000e+00 0.0000e+00
       -6  2    1    2    0  504 +2.2047434518e+02 -7.4368850245e+00 +2.1693508440e+03 2.1873976463e+03 1.7309284950e+02 0.0000e+00 0.0000e+00
      -24  2    5    5    0    0 +1.4338804268e+02 +6.0258668018e+01 +1.2763865433e+03 1.2885470924e+03 8.3664589580e+01 0.0000e+00 0.0000e+00
        5  1    3    3  501    0 -2.5991207490e+01 -4.7020436943e+01 +6.9522277321e+01 8.7988075334e+01 4.7000000000e+00 0.0000e+00 -1.0000e+00
      -13  1    4    4    0    0 -3.7781947512e+01 -5.8770839349e+00 +1.2821817479e+01 4.0328831831e+01 0.0000000000e+00 0.0000e+00 1.0000e+00
       14  1    4    4    0    0 -1.4877731892e+02 +9.7277669816e+01 +2.0153487872e+02 2.6872652086e+02 0.0000000000e+00 0.0000e+00 -1.0000e+00
       -5  1    5    5    0  504 +7.7086302508e+01 -6.7695553042e+01 +8.9296430071e+02 8.9885055391e+02 4.7000000000e+00 0.0000e+00 1.0000e+00
       13  1    6    6    0    0 +5.1759501682e+01 +1.2104153017e+01 +1.9171824170e+02 1.9895085005e+02 0.0000000000e+00 0.0000e+00 -1.0000e+00
      -14  1    6    6    0    0 +9.1628540993e+01 +4.8154515000e+01 +1.0846683016e+03 1.0895962424e+03 0.0000000000e+00 0.0000e+00 1.0000e+00
       21  1    1    2  504  502 -7.9238712637e+00 -3.6943263914e+01 +5.6967364122e+02 5.7092525779e+02 0.0000000000e+00 0.0000e+00 -1.0000e+00
<mgrwt>
<rscale>  3 0.27772925E+03</rscale>
<asrwt>0</asrwt>
<pdfrwt beam="1">  1       21 0.47525141E+00 0.27775276E+03</pdfrwt>
<pdfrwt beam="2">  1       21 0.10189454E-01 0.27775276E+03</pdfrwt>
<totfact> 0.19484863E+02</totfact>
</mgrwt>
</event>
<event>
13      2 +1.4674046e+01 2.16797900e+02 7.54677100e-03 1.13673000e-01
       21 -1    0    0  501  502 +0.0000000000e+00 +0.0000000000e+00 +3.5045396266e+02 3.5045396266e+02 0.0000000000e+00 0.0000e+00 1.0000e+00
       21 -1    0    0  504  503 -0.0000000000e+00 -0.0000000000e+00 -2.0425274873e+02 2.0425274873e+02 0.0000000000e+00 0.0000e+00 -1.0000e+00
       -6  2    1    2    0  503 -8.8855494926e+01 +9.6407846126e+01 +1.4395925150e+02 2.6221255603e+02 1.7561715940e+02 0.0000e+00 0.0000e+00
      -24  2    3    3    0    0 -6.1530992864e+01 +3.4866293173e+01 +4.6427217849e+00 1.0740565501e+02 8.0701291069e+01 0.0000e+00 0.0000e+00
        6  2    1    2  501    0 +5.1341512496e+01 -1.0323579997e+02 +6.2288641040e+01 2.2136382818e+02 1.7840540441e+02 0.0000e+00 0.0000e+00
       24  2    5    5    0    0 +1.4797690667e+01 -5.3838191711e+01 +1.0721998168e+02 1.4509791189e+02 8.0248096716e+01 0.0000e+00 0.0000e+00
        5  1    5    5  501    0 +3.6543821829e+01 -4.9397608261e+01 -4.4931340645e+01 7.6265916292e+01 4.7000000000e+00 0.0000e+00 -1.0000e+00
      -13  1    6    6    0    0 -2.1404876281e+01 -5.7243774447e+01 +6.1796906936e+01 8.6913037850e+01 0.0000000000e+00 0.0000e+00 1.0000e+00
       14  1    6    6    0    0 +3.6202566948e+01 +3.4055827360e+00 +4.5423074749e+01 5.8184874040e+01 0.0000000000e+00 0.0000e+00 -1.0000e+00
       -5  1    3    3    0  503 -2.7324502062e+01 +6.1541552953e+01 +1.3931652971e+02 1.5480690102e+02 4.7000000000e+00 0.0000e+00 1.0000e+00
       13  1    4    4    0    0 -2.7881930806e+01 -2.5161523566e+01 -5.1085297368e+00 3.7902525110e+01 0.0000000000e+00 0.0000e+00 -1.0000e+00
      -14  1    4    4    0    0 -3.3649062058e+01 +6.0027816739e+01 +9.7512515217e+00 6.9503129901e+01 0.0000000000e+00 0.0000e+00 1.0000e+00
       21  1    1    2  504  502 +3.7513982430e+01 +6.8279538453e+00 -6.0046678611e+01 7.1130327173e+01 0.0000000000e+00 0.0000e+00 -1.0000e+00
<mgrwt>
<rscale>  3 0.21622343E+03</rscale>
<asrwt>0</asrwt>
<pdfrwt beam="1">  1       21 0.53915994E-01 0.21679786E+03</pdfrwt>
<pdfrwt beam="2">  1       21 0.31423500E-01 0.21679786E+03</pdfrwt>
<totfact> 0.31258225E+04</totfact>
</mgrwt>
</event>
<event>
13      2 +1.4674046e+01 2.55280600e+02 7.54677100e-03 1.12550800e-01
       21 -1    0    0  504  502 +0.0000000000e+00 +0.0000000000e+00 +6.5084161663e+02 6.5084161663e+02 0.0000000000e+00 0.0000e+00 1.0000e+00
       21 -1    0    0  501  503 -0.0000000000e+00 -0.0000000000e+00 -5.0314354225e+02 5.0314354225e+02 0.0000000000e+00 0.0000e+00 -1.0000e+00
        6  2    1    2  501    0 -2.6916744624e+00 +1.9224089249e+01 -1.6203039136e+02 2.3702089294e+02 1.7189603033e+02 0.0000e+00 0.0000e+00
       24  2    3    3    0    0 -3.7149381016e+01 +6.1540185149e+01 -1.4323307993e+02 1.7911221975e+02 7.9988756581e+01 0.0000e+00 0.0000e+00
       -6  2    1    2    0  502 +5.3703003437e+01 -1.9474858312e+02 -2.2586228763e+02 3.5104160450e+02 1.7721572139e+02 0.0000e+00 0.0000e+00
      -24  2    5    5    0    0 +3.1613467548e+01 -8.0626143491e+01 -3.5235731243e+01 1.2772019302e+02 8.7010945316e+01 0.0000e+00 0.0000e+00
        5  1    3    3  501    0 +3.4457706553e+01 -4.2316095900e+01 -1.8797311434e+01 5.7908673187e+01 4.7000000000e+00 0.0000e+00 -1.0000e+00
      -13  1    4    4    0    0 +8.6400345035e+00 -1.2737701318e+01 -6.0671262835e+00 1.6544160675e+01 0.0000000000e+00 0.0000e+00 1.0000e+00
       14  1    4    4    0    0 -4.5789415519e+01 +7.4277886468e+01 -1.3716595364e+02 1.6256805907e+02 0.0000000000e+00 0.0000e+00 -1.0000e+00
       -5  1    5    5    0  502 +2.2089535890e+01 -1.1412243963e+02 -1.9062655639e+02 2.2332141148e+02 4.7000000000e+00 0.0000e+00 1.0000e+00
       13  1    6    6    0    0 +7.4188628701e+00 +1.8634666786e+01 -1.4405252040e+00 2.0108839980e+01 0.0000000000e+00 0.0000e+00 -1.0000e+00
      -14  1    6    6    0    0 +2.4194604677e+01 -9.9260810277e+01 -3.3795206039e+01 1.0761135304e+02 0.0000000000e+00 0.0000e+00 1.0000e+00
       21  1    1    2  504  503 -5.1011328975e+01 +1.7552449387e+02 +5.3559075338e+02 5.6592266145e+02 0.0000000000e+00 0.0000e+00 1.0000e+00
<mgrwt>
<rscale>  3 0.23161554E+03</rscale>
<asrwt>0</asrwt>
<pdfrwt beam="1">  1       21 0.10012948E+00 0.25528057E+03</pdfrwt>
<pdfrwt beam="2">  1       21 0.77406699E-01 0.25528057E+03</pdfrwt>
<totfact> 0.11480530E+03</totfact>
</mgrwt>
</event>
<event>
14      3 +1.4674046e+01 1.82201500e+02 7.54677100e-03 1.16575000e-01
       21 -1    0    0  505  502 +0.0000000000e+00 +0.0000000000e+00 +3.0204678940e+02 3.0204678940e+02 0.0000000000e+00 0.0000e+00 1.0000e+00
       21 -1    0    0  504  503 -0.0000000000e+00 -0.0000000000e+00 -2.9446725026e+02 2.9446725026e+02 0.0000000000e+00 0.0000e+00 -1.0000e+00
       -6  2    1    2    0  502 +4.3045541699e+01 -4.8765107834e+01 -8.5514971601e+01 2.0406412226e+02 1.7348890807e+02 0.0000e+00 0.0000e+00
      -24  2    3    3    0    0 +2.1862465849e+01 +3.5574327538e+01 -7.0761491108e+01 1.1573735254e+02 8.1513471014e+01 0.0000e+00 0.0000e+00
        6  2    1    2  501    0 -6.6159885710e+01 -2.9103399092e+01 +4.6493885234e+01 1.9336930413e+02 1.7322201968e+02 0.0000e+00 0.0000e+00
       24  2    5    5    0    0 -2.5514429628e+01 -8.1039266733e+01 +8.6083398899e+00 1.1716699450e+02 8.0222516866e+01 0.0000e+00 0.0000e+00
        5  1    5    5  501    0 -4.0645456083e+01 +5.1935867642e+01 +3.7885545344e+01 7.6202309636e+01 4.7000000000e+00 0.0000e+00 -1.0000e+00
      -13  1    6    6    0    0 +2.5877946319e+01 -8.3643165128e+00 -3.1723262618e+00 2.7380532323e+01 0.0000000000e+00 0.0000e+00 1.0000e+00
       14  1    6    6    0    0 -5.1392375946e+01 -7.2674950221e+01 +1.1780666152e+01 8.9786462175e+01 0.0000000000e+00 0.0000e+00 -1.0000e+00
       -5  1    3    3    0  502 +2.1183075851e+01 -8.4339435372e+01 -1.4753480493e+01 8.8326769714e+01 4.7000000000e+00 0.0000e+00 1.0000e+00
       13  1    4    4    0    0 -2.4710659994e+01 +3.1101705171e+01 -5.1742598262e+01 6.5232118291e+01 0.0000000000e+00 0.0000e+00 -1.0000e+00
      -14  1    4    4    0    0 +4.6573125843e+01 +4.4726223668e+00 -1.9018892846e+01 5.0505234250e+01 0.0000000000e+00 0.0000e+00 1.0000e+00
       21  1    1    2  504  501 +4.5986959301e+01 +1.2003117801e+02 -4.9902153871e+00 1.2863586735e+02 0.0000000000e+00 0.0000e+00 -1.0000e+00
       21  1    1    2  505  503 -2.2872615290e+01 -4.2162671080e+01 +5.1590840899e+01 7.0444745919e+01 0.0000000000e+00 0.0000e+00 1.0000e+00
<mgrwt>
<rscale>  4 0.18213795E+03</rscale>
<asrwt>0</asrwt>
<pdfrwt beam="1">  1       21 0.46468737E-01 0.18220151E+03</pdfrwt>
<pdfrwt beam="2">  1       21 0.45302654E-01 0.18220151E+03</pdfrwt>
<totfact> 0.20858666E+04</totfact>
</mgrwt>
</event>
<event>
13      2 +1.4674046e+01 2.34970800e+02 7.54677100e-03 1.12333300e-01
       21 -1    0    0  504  502 +0.0000000000e+00 +0.0000000000e+00 +4.4182125006e+02 4.4182125006e+02 0.0000000000e+00 0.0000e+00 1.0000e+00
       21 -1    0    0  501  503 -0.0000000000e+00 -0.0000000000e+00 -3.3390790720e+02 3.3390790720e+02 0.0000000000e+00 0.0000e+00 -1.0000e+00
        6  2    1    2  501    0 +1.7309735929e+02 +1.3661573207e+01 -1.6143661863e+01 2.4592244368e+02 1.7340096917e+02 0.0000e+00 0.0000e+00
       24  2    3    3    0    0 +1.1384187239e+02 +2.9435422765e+00 +5.7178460858e+01 1.5092606166e+02 8.0874367714e+01 0.0000e+00 0.0000e+00
       -6  2    1    2    0  502 -1.4694442197e+02 +5.7783059239e+01 +2.7493976833e+02 3.6082766166e+02 1.7225904948e+02 0.0000e+00 0.0000e+00
      -24  2    5    5    0    0 -4.5400584046e+01 -1.9818250796e+01 +1.7349029050e+02 1.9758795788e+02 8.0549016779e+01 0.0000e+00 0.0000e+00
        5  1    3    3  501    0 +5.9255486908e+01 +1.0718030931e+01 -7.3322122720e+01 9.4996382015e+01 4.7000000000e+00 0.0000e+00 -1.0000e+00
      -13  1    4    4    0    0 +1.1583398600e+01 -2.9333918254e+01 +2.0408000523e+01 3.7565148324e+01 0.0000000000e+00 0.0000e+00 1.0000e+00
       14  1    4    4    0    0 +1.0225847379e+02 +3.2277460531e+01 +3.6770460334e+01 1.1336091334e+02 0.0000000000e+00 0.0000e+00 -1.0000e+00
       -5  1    5    5    0  502 -1.0154383792e+02 +7.7601310035e+01 +1.0144947783e+02 1.6323970378e+02 4.7000000000e+00 0.0000e+00 1.0000e+00
       13  1    6    6    0    0 +2.2743890754e+01 +1.3754482523e+00 +3.4462225900e+01 4.1313695532e+01 0.0000000000e+00 0.0000e+00 -1.0000e+00
      -14  1    6    6    0    0 -6.8144474800e+01 -2.1193699048e+01 +1.3902806460e+02 1.5627426235e+02 0.0000000000e+00 0.0000e+00 1.0000e+00
       21  1    1    2  504  503 -2.6152937325e+01 -7.1444632446e+01 -1.5088276360e+02 1.6897905192e+02 0.0000000000e+00 0.0000e+00 -1.0000e+00
<mgrwt>
<rscale>  3 0.23476018E+03</rscale>
<asrwt>0</asrwt>
<pdfrwt beam="1">  1       21 0.67972500E-01 0.23497082E+03</pdfrwt>
<pdfrwt beam="2">  1       21 0.51370447E-01 0.23497082E+03</pdfrwt>
<totfact> 0.69133812E+03</totfact>
</mgrwt>
</event>
<event>
13      2 +1.4674046e+01 1.80641900e+02 7.54677100e-03 1.16727300e-01
       21 -1    0    0  504  502 +0.0000000000e+00 +0.0000000000e+00 +3.2215391984e+02 3.2215391984e+02 0.0000000000e+00 0.0000e+00 1.0000e+00
       21 -1    0    0  502  503 -0.0000000000e+00 -0.0000000000e+00 -5.7230239119e+02 5.7230239119e+02 0.0000000000e+00 0.0000e+00 1.0000e+00
       -6  2    1    2    0  503 +3.7425005218e+01 -3.7122313363e+01 -3.8926123018e+02 4.2935239699e+02 1.7332189219e+02 0.0000e+00 0.0000e+00
      -24  2    3    3    0    0 +7.0097910033e+01 -4.4735895618e+01 -1.5865292559e+02 1.9626922409e+02 8.0223688384e+01 0.0000e+00 0.0000e+00
        6  2    1    2  501    0 +1.0775752866e+01 +5.9472423539e+01 -1.0736255805e+02 2.1296720046e+02 1.7371017123e+02 0.0000e+00 0.0000e+00
       24  2    5    5    0    0 +2.1652941938e+00 -2.9759399938e+01 -8.2328692313e+01 1.1977255065e+02 8.1713768283e+01 0.0000e+00 0.0000e+00
        5  1    5    5  501    0 +8.6104586722e+00 +8.9231823478e+01 -2.5033865739e+01 9.3194649812e+01 4.7000000000e+00 0.0000e+00 -1.0000e+00
      -13  1    6    6    0    0 -3.5748402696e+00 -5.3818593318e+01 -2.9587531760e+01 6.1519448187e+01 0.0000000000e+00 0.0000e+00 1.0000e+00
       14  1    6    6    0    0 +5.7401344634e+00 +2.4059193379e+01 -5.2741160554e+01 5.8253102461e+01 0.0000000000e+00 0.0000e+00 -1.0000e+00
       -5  1    3    3    0  503 -3.2672904814e+01 +7.6135822546e+00 -2.3060830459e+02 2.3308317290e+02 4.7000000000e+00 0.0000e+00 1.0000e+00
       13  1    4    4    0    0 +4.4483229477e+01 -2.8272835516e+01 -1.5718289111e+02 1.6578471639e+02 0.0000000000e+00 0.0000e+00 -1.0000e+00
      -14  1    4    4    0    0 +2.5614680555e+01 -1.6463060102e+01 -1.4700344810e+00 3.0484507692e+01 0.0000000000e+00 0.0000e+00 1.0000e+00
       21  1    1    2  504  501 -4.8200758084e+01 -2.2350110176e+01 +2.4647531688e+02 2.5213671358e+02 0.0000000000e+00 0.0000e+00 1.0000e+00
<mgrwt>
<rscale>  3 0.18054852E+03</rscale>
<asrwt>0</asrwt>
<pdfrwt beam="1">  1       21 0.49562142E-01 0.18064193E+03</pdfrwt>
<pdfrwt beam="2">  1       21 0.88046521E-01 0.18064193E+03</pdfrwt>
<totfact> 0.43314980E+03</totfact>
</mgrwt>
</event>
<event>
13      2 +1.4674046e+01 3.08059100e+02 7.54677100e-03 1.09509200e-01
       21 -1    0    0  501  502 +0.0000000000e+00 +0.0000000000e+00 +3.1326966736e+02 3.1326966736e+02 0.0000000000e+00 0.0000e+00 1.0000e+00
       21 -1    0    0  504  503 -0.0000000000e+00 -0.0000000000e+00 -6.4120243558e+02 6.4120243558e+02 0.0000000000e+00 0.0000e+00 1.0000e+00
        6  2    1    2  501    0 +1.0258948813e+02 +7.6529841664e+01 -5.8444351871e+01 2.2140896897e+02 1.7095253591e+02 0.0000e+00 0.0000e+00
       24  2    3    3    0    0 +8.2398524927e+01 +1.1605598460e+02 -6.5311062476e+01 1.7625110493e+02 8.0872792924e+01 0.0000e+00 0.0000e+00
       -6  2    1    2    0  503 +1.7100544847e+02 -2.9698318480e+01 +1.0559836620e+02 2.6643965049e+02 1.7237812761e+02 0.0000e+00 0.0000e+00
      -24  2    5    5    0    0 +1.7762656305e+01 -4.3120201568e+00 +8.4114306209e+00 8.3149694563e+01 8.0678460967e+01 0.0000e+00 0.0000e+00
        5  1    3    3  501    0 +2.0190963203e+01 -3.9526142932e+01 +6.8667106045e+00 4.5157864040e+01 4.7000000000e+00 0.0000e+00 -1.0000e+00
      -13  1    4    4    0    0 +3.9779106962e+01 +6.2795949454e+01 +9.5812529342e+00 7.4950043538e+01 0.0000000000e+00 0.0000e+00 1.0000e+00
       14  1    4    4    0    0 +4.2619417965e+01 +5.3260035143e+01 -7.4892315410e+01 1.0130106139e+02 0.0000000000e+00 0.0000e+00 -1.0000e+00
       -5  1    5    5    0  503 +1.5324279217e+02 -2.5386298323e+01 +9.7186935581e+01 1.8328995592e+02 4.7000000000e+00 0.0000e+00 1.0000e+00
       13  1    6    6    0    0 +7.3781317094e-01 -4.1052775834e+01 -2.7339182817e+00 4.1150322977e+01 0.0000000000e+00 0.0000e+00 -1.0000e+00
      -14  1    6    6    0    0 +1.7024843134e+01 +3.6740755677e+01 +1.1145348903e+01 4.1999371586e+01 0.0000000000e+00 0.0000e+00 1.0000e+00
       21  1    1    2  504  502 -2.7359493660e+02 -4.6831523185e+01 -3.7508678255e+02 4.6662348349e+02 0.0000000000e+00 0.0000e+00 1.0000e+00
<mgrwt>
<rscale>  3 0.28109526E+03</rscale>
<asrwt>0</asrwt>
<pdfrwt beam="1">  1       21 0.48195334E-01 0.30805911E+03</pdfrwt>
<pdfrwt beam="2">  1       21 0.98646528E-01 0.30805911E+03</pdfrwt>
<totfact> 0.32258561E+03</totfact>
</mgrwt>
</event>
<event>
12      1 +1.4674046e+01 2.62968000e+02 7.54677100e-03 1.10541200e-01
       21 -1    0    0  503  502 +0.0000000000e+00 +0.0000000000e+00 +2.7183483491e+02 2.7183483491e+02 0.0000000000e+00 0.0000e+00 1.0000e+00
       21 -1    0    0  501  503 -0.0000000000e+00 -0.0000000000e+00 -2.5623399016e+02 2.5623399016e+02 0.0000000000e+00 0.0000e+00 1.0000e+00
        6  2    1    2  501    0 -9.0299212234e+01 -1.7714610843e+02 -1.6104224969e+01 2.6319645799e+02 1.7169256820e+02 0.0000e+00 0.0000e+00
       24  2    3    3    0    0 -8.8427317927e+01 -1.2801082927e+02 -6.9627698652e+01 1.9036355416e+02 8.4759090159e+01 0.0000e+00 0.0000e+00
       -6  2    1    2    0  502 +9.0299212234e+01 +1.7714610843e+02 +3.1705069722e+01 2.6487236708e+02 1.7209726300e+02 0.0000e+00 0.0000e+00
      -24  2    5    5    0    0 +6.5900731960e+01 +6.8418066778e+01 -3.9838869691e+01 1.3236690248e+02 8.3125946612e+01 0.0000e+00 0.0000e+00
        5  1    3    3  501    0 -1.8718943065e+00 -4.9135279156e+01 +5.3523473682e+01 7.2832903835e+01 4.7000000000e+00 0.0000e+00 -1.0000e+00
      -13  1    4    4    0    0 +7.6166360023e+00 -4.5619184631e+01 -6.7642806176e-01 4.6255601880e+01 0.0000000000e+00 0.0000e+00 1.0000e+00
       14  1    4    4    0    0 -9.6043953930e+01 -8.2391644641e+01 -6.8951270590e+01 1.4410795228e+02 0.0000000000e+00 0.0000e+00 -1.0000e+00
       -5  1    5    5    0  502 +2.4398480274e+01 +1.0872804165e+02 +7.1543939413e+01 1.3250546459e+02 4.7000000000e+00 0.0000e+00 1.0000e+00
       13  1    6    6    0    0 +3.5725202968e+01 +7.4015801280e+01 -5.4234236451e+01 9.8468174400e+01 0.0000000000e+00 0.0000e+00 -1.0000e+00
      -14  1    6    6    0    0 +3.0175528992e+01 -5.5977345016e+00 +1.4395366760e+01 3.3898728083e+01 0.0000000000e+00 0.0000e+00 1.0000e+00
<mgrwt>
<rscale>  2 0.26290179E+03</rscale>
<asrwt>0</asrwt>
<pdfrwt beam="1">  1       21 0.41820744E-01 0.26296798E+03</pdfrwt>
<pdfrwt beam="2">  1       21 0.39420614E-01 0.26296798E+03</pdfrwt>
<totfact> 0.33019932E+04</totfact>
</mgrwt>
</event>
<event>
14      3 +1.4674046e+01 1.82252200e+02 7.54677100e-03 1.16637300e-01
       21 -1    0    0  504  502 +0.0000000000e+00 +0.0000000000e+00 +7.0569544782e+01 7.0569544782e+01 0.0000000000e+00 0.0000e+00 1.0000e+00
       21 -1    0    0  501  503 -0.0000000000e+00 -0.0000000000e+00 -1.1320108193e+03 1.1320108193e+03 0.0000000000e+00 0.0000e+00 1.0000e+00
        6  2    1    2  501    0 -6.4781206900e+01 +2.7635770364e+01 -1.5062034779e+02 2.4204596121e+02 1.7589604202e+02 0.0000e+00 0.0000e+00
       24  2    3    3    0    0 +1.6781267883e+01 +4.0446478028e+01 -1.2033954329e+02 1.5398025481e+02 8.5503126580e+01 0.0000e+00 0.0000e+00
       -6  2    1    2    0  505 +6.5072931353e+01 +1.2629069976e+01 -7.3282888891e+02 7.5582377305e+02 1.7273510266e+02 0.0000e+00 0.0000e+00
      -24  2    5    5    0    0 +3.5925066940e+00 -4.9277778157e+01 -2.9604998720e+02 3.1039117497e+02 7.9094127789e+01 0.0000e+00 0.0000e+00
        5  1    3    3  501    0 -8.1562474783e+01 -1.2810707664e+01 -3.0280804501e+01 8.8065706406e+01 4.7000000000e+00 0.0000e+00 -1.0000e+00
      -13  1    4    4    0    0 -2.8864741681e+01 +4.0410702740e+01 -7.2304095982e+01 8.7715907930e+01 0.0000000000e+00 0.0000e+00 1.0000e+00
       14  1    4    4    0    0 +4.5646009564e+01 +3.5775287230e-02 -4.8035447306e+01 6.6264346876e+01 0.0000000000e+00 0.0000e+00 -1.0000e+00
       -5  1    5    5    0  505 +6.1480424659e+01 +6.1906848133e+01 -4.3677890171e+02 4.4543259809e+02 4.7000000000e+00 0.0000e+00 1.0000e+00
       13  1    6    6    0    0 +2.0814545582e+01 +1.5677698646e+01 -8.2887405027e+01 8.6887038474e+01 0.0000000000e+00 0.0000e+00 -1.0000e+00
      -14  1    6    6    0    0 -1.7222038888e+01 -6.4955476803e+01 -2.1316258217e+02 2.2350413649e+02 0.0000000000e+00 0.0000e+00 1.0000e+00
       21  1    1    2  504  503 -3.5990042557e+01 +1.1384982709e+01 -7.7751246780e+01 8.6430072141e+01 0.0000000000e+00 0.0000e+00 1.0000e+00
       21  1    1    2  505  502 +3.5698318104e+01 -5.1649823049e+01 -1.0024079107e+02 1.1828055771e+02 0.0000000000e+00 0.0000e+00 -1.0000e+00
<mgrwt>
<rscale>  4 0.18148516E+03</rscale>
<asrwt>0</asrwt>
<pdfrwt beam="1">  1       21 0.10856854E-01 0.18225218E+03</pdfrwt>
<pdfrwt beam="2">  1       21 0.17415550E+00 0.18225218E+03</pdfrwt>
<totfact> 0.14112474E+04</totfact>
</mgrwt>
</event>
<event>
13      2 +1.4674046e+01 2.11365200e+02 7.54677100e-03 1.14071800e-01
       21 -1    0    0  504  502 +0.0000000000e+00 +0.0000000000e+00 +6.8481549517e+01 6.8481549517e+01 0.0000000000e+00 0.0000e+00 1.0000e+00
       21 -1    0    0  502  503 -0.0000000000e+00 -0.0000000000e+00 -1.2908730843e+03 1.2908730843e+03 0.0000000000e+00 0.0000e+00 1.0000e+00
       -6  2    1    2    0  503 +1.1005820985e+02 -5.7337338092e+01 -1.0479624420e+03 1.0696226456e+03 1.7454782781e+02 0.0000e+00 0.0000e+00
      -24  2    3    3    0    0 +7.6425513331e+01 -8.8716306997e+01 -9.5715650752e+02 9.6772266667e+02 8.1407232382e+01 0.0000e+00 0.0000e+00
        6  2    1    2  501    0 -7.8600941993e+01 +5.9431058167e+01 -1.5743725171e+02 2.5391766111e+02 1.7314020804e+02 0.0000e+00 0.0000e+00
       24  2    5    5    0    0 -1.2067900789e+02 +3.2178272219e+01 -1.0838796490e+02 1.8362398779e+02 7.9818254876e+01 0.0000e+00 0.0000e+00
        5  1    5    5  501    0 +4.2078065893e+01 +2.7252785948e+01 -4.9049286812e+01 7.0293673314e+01 4.7000000000e+00 0.0000e+00 -1.0000e+00
      -13  1    6    6    0    0 -2.9217779729e+01 +4.5944402646e+01 -5.2054486217e+01 7.5327526988e+01 0.0000000000e+00 0.0000e+00 1.0000e+00
       14  1    6    6    0    0 -9.1461228157e+01 -1.3766130427e+01 -5.6333478679e+01 1.0829646080e+02 0.0000000000e+00 0.0000e+00 -1.0000e+00
       -5  1    3    3    0  503 +3.3632696523e+01 +3.1378968905e+01 -9.0805934498e+01 1.0189997893e+02 4.7000000000e+00 0.0000e+00 1.0000e+00
       13  1    4    4    0    0 +2.9636343023e+01 +4.0562126833e+00 -1.0256668592e+02 1.0683955611e+02 0.0000000000e+00 0.0000e+00 -1.0000e+00
      -14  1    4    4    0    0 +4.6789170308e+01 -9.2772519681e+01 -8.5458982160e+02 8.6088311056e+02 0.0000000000e+00 0.0000e+00 1.0000e+00
       21  1    1    2  504  501 -3.1457267861e+01 -2.0937200746e+00 -1.6991841080e+01 3.5814327138e+01 0.0000000000e+00 0.0000e+00 1.0000e+00
<mgrwt>
<rscale>  3 0.21107436E+03</rscale>
<asrwt>0</asrwt>
<pdfrwt beam="1">  1       21 0.10535623E-01 0.21136519E+03</pdfrwt>
<pdfrwt beam="2">  1       21 0.19859587E+00 0.21136519E+03</pdfrwt>
<totfact> 0.99883936E+03</totfact>
</mgrwt>
</event>
<event>
13      2 +1.4674046e+01 2.53144800e+02 7.54677100e-03 1.11140200e-01
       21 -1    0    0  501  502 +0.0000000000e+00 +0.0000000000e+00 +4.2870479502e+02 4.2870479502e+02 0.0000000000e+00 0.0000e+00 1.0000e+00
       21 -1    0    0  502  503 -0.0000000000e+00 -0.0000000000e+00 -2.2704556714e+02 2.2704556714e+02 0.0000000000e+00 0.0000e+00 1.0000e+00
       -6  2    1    2    0  504 +3.4021741407e+01 -1.3551274182e+02 +4.2178497000e-01 2.2235456854e+02 1.7297454773e+02 0.0000e+00 0.0000e+00
      -24  2    3    3    0    0 -3.2912460219e+01 -1.2786076660e+02 +1.7156380489e+01 1.5277815904e+02 7.4934763726e+01 0.0000e+00 0.0000e+00
        6  2    1    2  501    0 -1.1746906473e+01 +2.1115445834e+02 +2.2143686369e+02 3.5199644382e+02 1.7361744375e+02 0.0000e+00 0.0000e+00
       24  2    5    5    0    0 -6.1803271307e+01 +1.2585147272e+02 +8.8096285631e+01 1.8591201116e+02 8.4522676372e+01 0.0000e+00 0.0000e+00
        5  1    5    5  501    0 +5.0056364834e+01 +8.5302985623e+01 +1.3334057806e+02 1.6608443266e+02 4.7000000000e+00 0.0000e+00 -1.0000e+00
      -13  1    6    6    0    0 -4.6494407079e+01 +1.3331048943e+02 +9.1902994065e+01 1.6846238986e+02 0.0000000000e+00 0.0000e+00 1.0000e+00
       14  1    6    6    0    0 -1.5308864228e+01 -7.4590167073e+00 -3.8067084340e+00 1.7449621294e+01 0.0000000000e+00 0.0000e+00 -1.0000e+00
       -5  1    3    3    0  504 +6.6934201626e+01 -7.6519752289e+00 -1.6734595519e+01 6.9576409503e+01 4.7000000000e+00 0.0000e+00 1.0000e+00
       13  1    4    4    0    0 -5.1169706009e+01 -7.4939160817e+01 +2.9564341984e+01 9.5437240917e+01 0.0000000000e+00 0.0000e+00 -1.0000e+00
      -14  1    4    4    0    0 +1.8257245791e+01 -5.2921605779e+01 -1.2407961495e+01 5.7340918118e+01 0.0000000000e+00 0.0000e+00 1.0000e+00
       21  1    1    2  504  503 -2.2274834934e+01 -7.5641716517e+01 -2.0199420780e+01 8.1399349806e+01 0.0000000000e+00 0.0000e+00 1.0000e+00
<mgrwt>
<rscale>  3 0.25303456E+03</rscale>
<asrwt>0</asrwt>
<pdfrwt beam="1">  1       21 0.65954584E-01 0.25314475E+03</pdfrwt>
<pdfrwt beam="2">  1       21 0.34930087E-01 0.25314475E+03</pdfrwt>
<totfact> 0.16118292E+04</totfact>
</mgrwt>
</event>
<event>
12      1 +1.4674046e+01 2.30347500e+02 7.54677100e-03 1.12647700e-01
       21 -1    0    0  501  502 +0.0000000000e+00 +0.0000000000e+00 +5.0899042638e+02 5.0899042638e+02 0.0000000000e+00 0.0000e+00 -1.0000e+00
       21 -1    0    0  502  503 -0.0000000000e+00 -0.0000000000e+00 -1.0652886054e+02 1.0652886054e+02 0.0000000000e+00 0.0000e+00 1.0000e+00
       -6  2    1    2    0  503 +1.2912403559e+02 +7.9986485562e+01 +1.5434298067e+02 2.7727556157e+02 1.7317369004e+02 0.0000e+00 0.0000e+00
      -24  2    3    3    0    0 +4.0215406764e+01 -2.5720843425e+01 +6.8691482515e+01 1.1468081129e+02 7.8449525054e+01 0.0000e+00 0.0000e+00
        6  2    1    2  501    0 -1.2912403559e+02 -7.9986485562e+01 +2.4811858517e+02 3.3824372535e+02 1.7255471883e+02 0.0000e+00 0.0000e+00
       24  2    5    5    0    0 -8.4660395078e+01 -1.2046636293e+02 +2.0204294477e+02 2.6234451299e+02 7.9522103039e+01 0.0000e+00 0.0000e+00
        5  1    5    5  501    0 -4.4463640509e+01 +4.0479877364e+01 +4.6075640396e+01 7.5899212359e+01 4.7000000000e+00 0.0000e+00 -1.0000e+00
      -13  1    6    6    0    0 -6.5506254813e+01 -8.4470714832e+01 +7.9558124131e+01 1.3325113958e+02 0.0000000000e+00 0.0000e+00 1.0000e+00
       14  1    6    6    0    0 -1.9154140265e+01 -3.5995648094e+01 +1.2248482064e+02 1.2909337341e+02 0.0000000000e+00 0.0000e+00 -1.0000e+00
       -5  1    3    3    0  503 +8.8908628824e+01 +1.0570732899e+02 +8.5651498158e+01 1.6259475028e+02 4.7000000000e+00 0.0000e+00 1.0000e+00
       13  1    4    4    0    0 +3.8392462642e+01 -3.4834315392e+01 +7.0205198950e+00 5.2313463049e+01 0.0000000000e+00 0.0000e+00 -1.0000e+00
      -14  1    4    4    0    0 +1.8229441211e+00 +9.1134719671e+00 +6.1670962620e+01 6.2367348244e+01 0.0000000000e+00 0.0000e+00 1.0000e+00
<mgrwt>
<rscale>  2 0.23023119E+03</rscale>
<asrwt>0</asrwt>
<pdfrwt beam="1">  1       21 0.78306218E-01 0.23034752E+03</pdfrwt>
<pdfrwt beam="2">  1       21 0.16389056E-01 0.23034752E+03</pdfrwt>
<totfact> 0.47295745E+04</totfact>
</mgrwt>
</event>
<event>
14      3 +1.4674046e+01 2.66559900e+02 7.54677100e-03 1.10449100e-01
        2 -1    0    0  503    0 -0.0000000000e+00 +0.0000000000e+00 +4.0104734059e+03 4.0104734059e+03 0.0000000000e+00 0.0000e+00 1.0000e+00
       21 -1    0    0  501  503 +0.0000000000e+00 -0.0000000000e+00 -1.1142354184e+02 1.1142354184e+02 0.0000000000e+00 0.0000e+00 -1.0000e+00
        6  2    1    2  501    0 -1.5071203448e+02 +1.4766362097e+02 +1.2491233175e+02 2.9347165623e+02 1.6125712416e+02 0.0000e+00 0.0000e+00
       24  2    3    3    0    0 -1.6972442673e+02 +1.3519698791e+02 +1.3461001708e+02 2.6831170591e+02 8.2381480098e+01 0.0000e+00 0.0000e+00
       -6  2    1    2    0  504 +2.2869890796e+02 +2.4505604802e+01 +9.0613878793e+02 9.5097094541e+02 1.7422548855e+02 0.0000e+00 0.0000e+00
      -24  2    5    5    0    0 +9.2114382073e+01 -5.0379807793e+01 +3.5915882435e+02 3.8222466780e+02 7.7958008917e+01 0.0000e+00 0.0000e+00
        5  1    3    3  501    0 +1.9012392254e+01 +1.2466633062e+01 -9.6976853294e+00 2.5159950316e+01 4.7000000000e+00 0.0000e+00 -1.0000e+00
      -13  1    4    4    0    0 -9.8757464532e+00 -2.6499735566e+00 -8.4980095073e+00 1.3295446343e+01 0.0000000000e+00 0.0000e+00 1.0000e+00
       14  1    4    4    0    0 -1.5984868028e+02 +1.3784696146e+02 +1.4310802659e+02 2.5501625957e+02 0.0000000000e+00 0.0000e+00 -1.0000e+00
       -5  1    5    5    0  504 +1.3658452589e+02 +7.4885412595e+01 +5.4697996358e+02 5.6874627761e+02 4.7000000000e+00 0.0000e+00 1.0000e+00
       13  1    6    6    0    0 -2.5487439566e-01 -3.6131658427e+01 +7.8583646886e+01 8.6492492504e+01 0.0000000000e+00 0.0000e+00 -1.0000e+00
      -14  1    6    6    0    0 +9.2369256469e+01 -1.4248149366e+01 +2.8057517746e+02 2.9573217530e+02 0.0000000000e+00 0.0000e+00 1.0000e+00
       21  1    1    2  504  502 -4.2354089351e+01 -2.5326299880e+01 +2.3511423360e+02 2.4023736844e+02 0.0000000000e+00 0.0000e+00 1.0000e+00
        2  1    1    2  502    0 -3.5632784134e+01 -1.4684292589e+02 +2.6328845108e+03 2.6372169776e+03 0.0000000000e+00 0.0000e+00 1.0000e+00
<mgrwt>
<rscale>  4 0.26446286E+03</rscale>
<asrwt>0</asrwt>
<pdfrwt beam="2">  1       21 0.17142086E-01 0.26655989E+03</pdfrwt>
<pdfrwt beam="1">  1        2 0.61699580E+00 0.26655989E+03</pdfrwt>
<totfact> 0.16904766E+02</totfact>
</mgrwt>
</event>
<event>
13      2 +1.4674046e+01 1.82949400e+02 7.54677100e-03 1.16502300e-01
       21 -1    0    0  503  502 +0.0000000000e+00 +0.0000000000e+00 +6.2953032811e+02 6.2953032811e+02 0.0000000000e+00 0.0000e+00 -1.0000e+00
       21 -1    0    0  501  503 -0.0000000000e+00 -0.0000000000e+00 -7.7988625169e+01 7.7988625169e+01 0.0000000000e+00 0.0000e+00 -1.0000e+00
        6  2    1    2  501    0 +9.2576154512e+00 +5.7805828326e+01 +7.5880573533e+01 1.9788771555e+02 1.7313136427e+02 0.0000e+00 0.0000e+00
       24  2    3    3    0    0 +2.3516374551e+01 +1.0256769591e+02 +3.9776823938e+01 1.3845281221e+02 8.0708322797e+01 0.0000e+00 0.0000e+00
       -6  2    1    2    0  502 -9.2576154512e+00 -5.7805828326e+01 +4.7566112940e+02 5.0963123772e+02 1.7332994896e+02 0.0000e+00 0.0000e+00
      -24  2    5    5    0    0 -1.5124255531e+01 -4.9729951070e+01 +3.4698725733e+02 3.5986845171e+02 8.0020838818e+01 0.0000e+00 0.0000e+00
        5  1    3    3  501    0 -1.4258759100e+01 -4.4761867585e+01 +3.6103749595e+01 5.9434903345e+01 4.7000000000e+00 0.0000e+00 -1.0000e+00
      -13  1    4    4    0    0 -2.6994463563e+01 +5.6200125259e+01 +3.0013706313e+01 6.9195214494e+01 0.0000000000e+00 0.0000e+00 1.0000e+00
       14  1    4    4    0    0 +5.0510838114e+01 +4.6367570653e+01 +9.7631176252e+00 6.9257597713e+01 0.0000000000e+00 0.0000e+00 -1.0000e+00
       -5  1    5    5    0  504 -2.6224020230e+01 -2.1685952852e+01 +3.1811319513e+01 4.6819118289e+01 4.7000000000e+00 0.0000e+00 1.0000e+00
       13  1    6    6    0    0 -1.6180313632e+01 +1.2996040686e+01 +2.8466365794e+01 3.5228306860e+01 0.0000000000e+00 0.0000e+00 -1.0000e+00
      -14  1    6    6    0    0 +1.0560581014e+00 -6.2725991755e+01 +3.1852089154e+02 3.2464014485e+02 0.0000000000e+00 0.0000e+00 1.0000e+00
       21  1    5    5  504  502 +3.2090660309e+01 +1.3610075596e+01 +9.6862552556e+01 1.0294366772e+02 0.0000000000e+00 0.0000e+00 1.0000e+00
<mgrwt>
<rscale>  3 0.18290236E+03</rscale>
<asrwt>0</asrwt>
<pdfrwt beam="1">  1       21 0.96850816E-01 0.18294941E+03</pdfrwt>
<pdfrwt beam="2">  1       21 0.11998250E-01 0.18294941E+03</pdfrwt>
<totfact> 0.52214726E+04</totfact>
</mgrwt>
</event>
<event>
14      3 +1.4674046e+01 4.51211200e+02 7.54677100e-03 1.02742800e-01
       21 -1    0    0  505  502 +0.0000000000e+00 +0.0000000000e+00 +4.0259996981e+02 4.0259996981e+02 0.0000000000e+00 0.0000e+00 -1.0000e+00
       21 -1    0    0  504  503 -0.0000000000e+00 -0.0000000000e+00 -2.1561183758e+03 2.1561183758e+03 0.0000000000e+00 0.0000e+00 -1.0000e+00
       -6  2    1    2    0  503 +1.8585319182e+02 +5.2501645176e+02 -1.2772906975e+03 1.4042755709e+03 1.7416850945e+02 0.0000e+00 0.0000e+00
      -24  2    3    3    0    0 +1.5548069279e+02 +4.4548191713e+02 -9.2123932050e+02 1.0381568689e+03 8.0370483087e+01 0.0000e+00 0.0000e+00
        6  2    1    2  501    0 -1.5393520584e+02 -2.7498498559e+02 -6.6208400145e+02 7.5312826270e+02 1.7185507035e+02 0.0000e+00 0.0000e+00
       24  2    5    5    0    0 -5.6167745037e+01 -1.5288190937e+02 -2.2894822556e+02 2.9258909176e+02 8.1629607586e+01 0.0000e+00 0.0000e+00
        5  1    5    5  501    0 -9.7767460800e+01 -1.2210307622e+02 -4.3313577589e+02 4.6053917094e+02 4.7000000000e+00 0.0000e+00 -1.0000e+00
      -13  1    6    6    0    0 -7.4560459998e+01 -1.0650460099e+02 -1.4344851653e+02 1.9359744090e+02 0.0000000000e+00 0.0000e+00 1.0000e+00
       14  1    6    6    0    0 +1.8392714961e+01 -4.6377308379e+01 -8.5499709033e+01 9.8991650865e+01 0.0000000000e+00 0.0000e+00 -1.0000e+00
       -5  1    3    3    0  503 +3.0372499026e+01 +7.9534534635e+01 -3.5605137701e+02 3.6611870202e+02 4.7000000000e+00 0.0000e+00 1.0000e+00
       13  1    4    4    0    0 +1.4473698553e+02 +3.8837266950e+02 -8.5416854306e+02 9.4941351652e+02 0.0000000000e+00 0.0000e+00 -1.0000e+00
      -14  1    4    4    0    0 +1.0743707265e+01 +5.7109247633e+01 -6.7070777431e+01 8.8743352405e+01 0.0000000000e+00 0.0000e+00 1.0000e+00
       21  1    1    2  504  502 -1.0999944923e+01 -2.5138531594e+02 +2.3723355821e+02 3.4582558754e+02 0.0000000000e+00 0.0000e+00 -1.0000e+00
       21  1    1    2  505  501 -2.0918041058e+01 +1.3538497651e+00 -5.1377265210e+01 5.5488924403e+01 0.0000000000e+00 0.0000e+00 -1.0000e+00
<mgrwt>
<rscale>  4 0.45098907E+03</rscale>
<asrwt>0</asrwt>
<pdfrwt beam="1">  1       21 0.61938459E-01 0.45121122E+03</pdfrwt>
<pdfrwt beam="2">  1       21 0.33171051E+00 0.45121122E+03</pdfrwt>
<totfact> 0.40684753E+01</totfact>
</mgrwt>
</event>
<event>
13      2 +1.4674046e+01 1.95113700e+02 7.54677100e-03 1.15420900e-01
       21 -1    0    0  504  502 +0.0000000000e+00 +0.0000000000e+00 +2.3727201427e+02 2.3727201427e+02 0.0000000000e+00 0.0000e+00 1.0000e+00
       21 -1    0    0  501  503 -0.0000000000e+00 -0.0000000000e+00 -3.2445426342e+02 3.2445426342e+02 0.0000000000e+00 0.0000e+00 -1.0000e+00
        6  2    1    2  501    0 -3.2102335006e+01 -8.7008783558e+01 +1.0226348548e+02 2.2126268802e+02 1.7291115729e+02 0.0000e+00 0.0000e+00
       24  2    3    3    0    0 +1.5287446064e+00 -9.8366664401e+01 +1.2549916046e+02 1.7857735605e+02 8.0383425474e+01 0.0000e+00 0.0000e+00
       -6  2    1    2    0  502 +5.3703637449e+01 +6.9961626219e+01 -5.1188997557e+01 1.9949498612e+02 1.7146202553e+02 0.0000e+00 0.0000e+00
      -24  2    5    5    0    0 +8.0474671571e+01 -6.4160303728e+00 -4.0366102776e+01 1.1770586860e+02 7.5550718318e+01 0.0000e+00 0.0000e+00
        5  1    3    3  501    0 -3.3631079612e+01 +1.1357880843e+01 -2.3235674983e+01 4.2685331966e+01 4.7000000000e+00 0.0000e+00 -1.0000e+00
      -13  1    4    4    0    0 -3.1540996008e+01 -4.4299527265e+01 +2.5210021144e+01 5.9940201128e+01 0.0000000000e+00 0.0000e+00 1.0000e+00
       14  1    4    4    0    0 +3.3069740615e+01 -5.4067137136e+01 +1.0028913932e+02 1.1863715492e+02 0.0000000000e+00 0.0000e+00 -1.0000e+00
       -5  1    5    5    0  502 -2.6771034122e+01 +7.6377656592e+01 -1.0822894781e+01 8.1789117527e+01 4.7000000000e+00 0.0000e+00 1.0000e+00
       13  1    6    6    0    0 +2.5941226678e+01 +1.9080303351e+01 -4.7179819314e+01 5.7122154792e+01 0.0000000000e+00 0.0000e+00 -1.0000e+00
      -14  1    6    6    0    0 +5.4533444893e+01 -2.5496333724e+01 +6.8137165378e+00 6.0583713804e+01 0.0000000000e+00 0.0000e+00 1.0000e+00
       21  1    1    2  504  503 -2.1601302444e+01 +1.7047157339e+01 -1.3825673708e+02 1.4096860355e+02 0.0000000000e+00 0.0000e+00 -1.0000e+00
<mgrwt>
<rscale>  3 0.19479213E+03</rscale>
<asrwt>0</asrwt>
<pdfrwt beam="1">  1       21 0.36503387E-01 0.19511369E+03</pdfrwt>
<pdfrwt beam="2">  1       21 0.49916040E-01 0.19511369E+03</pdfrwt>
<totfact> 0.27637898E+04</totfact>
</mgrwt>
</event>
<event>
14      3 +1.4674046e+01 2.04868000e+02 7.54677100e-03 1.14587800e-01
       21 -1    0    0  503  502 +0.0000000000e+00 +0.0000000000e+00 +2.6637518275e+02 2.6637518275e+02 0.0000000000e+00 0.0000e+00 1.0000e+00
       21 -1    0    0  501  503 -0.0000000000e+00 -0.0000000000e+00 -6.4595316279e+02 6.4595316279e+02 0.0000000000e+00 0.0000e+00 1.0000e+00
        6  2    1    2  501    0 -1.1306800929e+02 +7.5962112449e+01 -3.1186157026e+02 3.8158178589e+02 1.7260475967e+02 0.0000e+00 0.0000e+00
       24  2    3    3    0    0 -7.8241438954e+01 -1.8634584690e+01 -1.9155529285e+02 2.2455594249e+02 8.5223063605e+01 0.0000e+00 0.0000e+00
       -6  2    1    2    0  504 +5.8363994436e+01 -6.0332656552e+01 -2.5104508509e+02 3.1658589173e+02 1.7365657719e+02 0.0000e+00 0.0000e+00
      -24  2    5    5    0    0 -1.3155187734e+01 -4.4936241132e+01 -5.1383467274e+01 1.0389152261e+02 7.7206625558e+01 0.0000e+00 0.0000e+00
        5  1    3    3  501    0 -3.4826570340e+01 +9.4596697139e+01 -1.2030627741e+02 1.5702584340e+02 4.7000000000e+00 0.0000e+00 -1.0000e+00
      -13  1    4    4    0    0 -6.3616779161e+01 +6.3469631198e+00 -5.3104048267e+01 8.3110880599e+01 0.0000000000e+00 0.0000e+00 1.0000e+00
       14  1    4    4    0    0 -1.4624659794e+01 -2.4981547810e+01 -1.3845124459e+02 1.4144506189e+02 0.0000000000e+00 0.0000e+00 -1.0000e+00
       -5  1    5    5    0  504 +7.1519182170e+01 -1.5396415420e+01 -1.9966161781e+02 2.1269436912e+02 4.7000000000e+00 0.0000e+00 1.0000e+00
       13  1    6    6    0    0 +3.2020776644e+01 -1.4488179812e+01 -1.4061236611e+01 3.7854403524e+01 0.0000000000e+00 0.0000e+00 -1.0000e+00
      -14  1    6    6    0    0 -4.5175964378e+01 -3.0448061321e+01 -3.7322230663e+01 6.6037119087e+01 0.0000000000e+00 0.0000e+00 1.0000e+00
       21  1    1    2  504  505 +2.3653011908e+01 +2.2404717570e+01 +1.0101886966e+01 3.4109888038e+01 0.0000000000e+00 0.0000e+00 1.0000e+00
       21  1    1    2  505  502 +3.1051002950e+01 -3.8034173466e+01 +1.7322678834e+02 1.8005077988e+02 0.0000000000e+00 0.0000e+00 1.0000e+00
<mgrwt>
<rscale>  4 0.20464490E+03</rscale>
<asrwt>0</asrwt>
<pdfrwt beam="1">  1       21 0.40980798E-01 0.20486796E+03</pdfrwt>
<pdfrwt beam="2">  1       21 0.99377409E-01 0.20486796E+03</pdfrwt>
<totfact> 0.47325207E+03</totfact>
</mgrwt>
</event>
<event>
13      2 +1.4674046e+01 2.01885200e+02 7.54677100e-03 1.14843300e-01
       21 -1    0    0  501  503 +0.0000000000e+00 +0.0000000000e+00 +5.3530430976e+02 5.3530430976e+02 0.0000000000e+00 0.0000e+00 -1.0000e+00
        1 -1    0    0  503    0 -0.0000000000e+00 -0.0000000000e+00 -5.9826981264e+02 5.9826981264e+02 0.0000000000e+00 0.0000e+00 1.0000e+00
       -6  2    1    2    0  502 +1.4134354487e+02 +4.0222020941e+01 +5.3956416780e+01 2.3265336137e+02 1.7210602255e+02 0.0000e+00 0.0000e+00
      -24  2    3    3    0    0 +1.2330651303e+01 +2.4492098644e+01 -1.5141217013e+01 8.5383778093e+01 7.9430631693e+01 0.0000e+00 0.0000e+00
        6  2    1    2  501    0 +2.4225860421e+01 -1.2233215996e+02 +3.4361282442e+02 4.0468739517e+02 1.7363774080e+02 0.0000e+00 0.0000e+00
       24  2    5    5    0    0 +7.2254375991e+01 -1.2566084088e+02 +2.6637578240e+02 3.1355304882e+02 7.9675060059e+01 0.0000e+00 0.0000e+00
        5  1    5    5  501    0 -4.8028515569e+01 +3.3286809236e+00 +7.7237042016e+01 9.1134346345e+01 4.7000000000e+00 0.0000e+00 -1.0000e+00
      -13  1    6    6    0    0 +2.9386433545e+01 -1.5414403166e+01 +1.2444316401e+02 1.2879156560e+02 0.0000000000e+00 0.0000e+00 1.0000e+00
       14  1    6    6    0    0 +4.2867942445e+01 -1.1024643772e+02 +1.4193261839e+02 1.8476148322e+02 0.0000000000e+00 0.0000e+00 -1.0000e+00
       -5  1    3    3    0  502 +1.2901289357e+02 +1.5729922298e+01 +6.9097633794e+01 1.4726958327e+02 4.7000000000e+00 0.0000e+00 1.0000e+00
       13  1    4    4    0    0 +1.9258247885e+01 +5.1825893096e+01 -5.4037484447e+00 5.5551811888e+01 0.0000000000e+00 0.0000e+00 -1.0000e+00
      -14  1    4    4    0    0 -6.9275965814e+00 -2.7333794452e+01 -9.7374685686e+00 2.9831966205e+01 0.0000000000e+00 0.0000e+00 1.0000e+00
        1  1    1    2  502    0 -1.6556940529e+02 +8.2110139017e+01 -4.6053474408e+02 4.9623336587e+02 0.0000000000e+00 0.0000e+00 1.0000e+00
<mgrwt>
<rscale>  3 0.20155538E+03</rscale>
<asrwt>0</asrwt>
<pdfrwt beam="1">  1       21 0.82354509E-01 0.20188516E+03</pdfrwt>
<pdfrwt beam="2">  1        1 0.92041510E-01 0.20188516E+03</pdfrwt>
<totfact> 0.50179945E+02</totfact>
</mgrwt>
</event>
<event>
12      1 +1.4674046e+01 1.88732600e+02 7.54677100e-03 1.16149400e-01
       21 -1    0    0  503  502 +0.0000000000e+00 +0.0000000000e+00 +6.0110353557e+02 6.0110353557e+02 0.0000000000e+00 0.0000e+00 1.0000e+00
       21 -1    0    0  501  503 -0.0000000000e+00 -0.0000000000e+00 -7.3487101448e+01 7.3487101448e+01 0.0000000000e+00 0.0000e+00 1.0000e+00
        6  2    1    2  501    0 -7.8471581622e+01 -8.4648297712e+00 +9.8379579776e+01 2.0569378345e+02 1.6248676368e+02 0.0000e+00 0.0000e+00
       24  2    3    3    0    0 -5.3061696611e+01 -5.6666629620e+01 +1.0133561159e+02 1.5092240508e+02 8.0510965829e+01 0.0000e+00 0.0000e+00
       -6  2    1    2    0  502 +7.8471581622e+01 +8.4648297712e+00 +4.2923685435e+02 4.6889685357e+02 1.7143669295e+02 0.0000e+00 0.0000e+00
      -24  2    5    5    0    0 +6.6825832222e+01 +6.9719788974e+01 +1.6985468705e+02 2.0208419978e+02 5.1583604592e+01 0.0000e+00 0.0000e+00
        5  1    3    3  501    0 -2.5409885011e+01 +4.8201799849e+01 -2.9560318160e+00 5.4771378374e+01 4.7000000000e+00 0.0000e+00 -1.0000e+00
      -13  1    4    4    0    0 -5.4596375949e+01 -8.3120933699e+00 +2.5169876034e+01 6.0690838044e+01 0.0000000000e+00 0.0000e+00 1.0000e+00
       14  1    4    4    0    0 +1.5346793382e+00 -4.8354536250e+01 +7.6165735558e+01 9.0231567035e+01 0.0000000000e+00 0.0000e+00 -1.0000e+00
       -5  1    5    5    0  502 +1.1645749399e+01 -6.1254959203e+01 +2.5938216730e+02 2.6681265378e+02 4.7000000000e+00 0.0000e+00 1.0000e+00
       13  1    6    6    0    0 +4.7922545280e+01 +7.5756392606e+01 +1.3862728393e+02 1.6508520593e+02 0.0000000000e+00 0.0000e+00 -1.0000e+00
      -14  1    6    6    0    0 +1.8903286942e+01 -6.0366036325e+00 +3.1227403119e+01 3.6998993854e+01 0.0000000000e+00 0.0000e+00 1.0000e+00
<mgrwt>
<rscale>  2 0.18667647E+03</rscale>
<asrwt>0</asrwt>
<pdfrwt beam="1">  1       21 0.92477464E-01 0.18873257E+03</pdfrwt>
<pdfrwt beam="2">  1       21 0.11305708E-01 0.18873257E+03</pdfrwt>
<totfact> 0.64499199E+04</totfact>
</mgrwt>
</event>
<event>
13      2 +1.4674046e+01 2.12209100e+02 7.54677100e-03 1.13989500e-01
       -2 -1    0    0    0  501 -0.0000000000e+00 +0.0000000000e+00 +6.2116480804e+02 6.2116480804e+02 0.0000000000e+00 0.0000e+00 -1.0000e+00
       21 -1    0    0  502  503 +0.0000000000e+00 -0.0000000000e+00 -5.2986907737e+02 5.2986907737e+02 0.0000000000e+00 0.0000e+00 -1.0000e+00
       -6  2    1    2    0  501 +6.9152534304e+01 -1.3085227437e+02 -2.9470565355e+02 3.7216749215e+02 1.7249008455e+02 0.0000e+00 0.0000e+00
      -24  2    3    3    0    0 +9.9447334141e+01 -1.1234249422e+02 -1.6344450026e+02 2.3610880179e+02 8.0762945352e+01 0.0000e+00 0.0000e+00
        6  2    1    2  502    0 -3.9508629509e+01 +8.2451419717e+01 -1.4585566524e+02 2.4398946827e+02 1.7290985260e+02 0.0000e+00 0.0000e+00
       24  2    5    5    0    0 +2.9147770998e+01 +7.1485183213e+01 -1.3194996989e+02 1.7293021105e+02 8.0835260666e+01 0.0000e+00 0.0000e+00
        5  1    5    5  502    0 -6.8656400507e+01 +1.0966236505e+01 -1.3905695350e+01 7.1059257221e+01 4.7000000000e+00 0.0000e+00 -1.0000e+00
      -13  1    6    6    0    0 -1.4713924396e+01 -5.4002705616e+00 -2.1488942630e+00 1.5820247780e+01 0.0000000000e+00 0.0000e+00 1.0000e+00
       14  1    6    6    0    0 +4.3861695394e+01 +7.6885453774e+01 -1.2980107562e+02 1.5710996327e+02 0.0000000000e+00 0.0000e+00 -1.0000e+00
       -5  1    3    3    0  501 -3.0294799837e+01 -1.8509780150e+01 -1.3126115329e+02 1.3605869036e+02 4.7000000000e+00 0.0000e+00 1.0000e+00
       13  1    4    4    0    0 +2.4692828548e+01 -5.6433865643e+01 -1.1612473854e+02 1.3145140499e+02 0.0000000000e+00 0.0000e+00 -1.0000e+00
      -14  1    4    4    0    0 +7.4754505592e+01 -5.5908628580e+01 -4.7319761725e+01 1.0465739680e+02 0.0000000000e+00 0.0000e+00 1.0000e+00
       -2  1    1    2    0  503 -2.9643904795e+01 +4.8400854656e+01 +5.3185704946e+02 5.3487692499e+02 0.0000000000e+00 0.0000e+00 -1.0000e+00
<mgrwt>
<rscale>  3 0.21212360E+03</rscale>
<asrwt>0</asrwt>
<pdfrwt beam="2">  1       21 0.81518319E-01 0.21220912E+03</pdfrwt>
<pdfrwt beam="1">  1       -2 0.95563817E-01 0.21220912E+03</pdfrwt>
<totfact> 0.10186832E+02</totfact>
</mgrwt>
</event>
<event>
13      2 +1.4674046e+01 2.63481500e+02 7.54677100e-03 1.10512000e-01
       21 -1    0    0  502  503 +0.0000000000e+00 +0.0000000000e+00 +6.3545873499e+02 6.3545873499e+02 0.0000000000e+00 0.0000e+00 -1.0000e+00
       -1 -1    0    0    0  501 -0.0000000000e+00 -0.0000000000e+00 -2.9409017767e+02 2.9409017767e+02 0.0000000000e+00 0.0000e+00 1.0000e+00
       -6  2    1    2    0  501 -1.9073003205e+02 +1.6377174788e+01 +4.0406370180e+02 4.7921433104e+02 1.7243185026e+02 0.0000e+00 0.0000e+00
      -24  2    3    3    0    0 -1.5688500708e+02 -4.5225028323e+01 +2.4382669073e+02 3.0417631558e+02 8.0084750172e+01 0.0000e+00 0.0000e+00
        6  2    1    2  502    0 +2.1820571964e+02 -1.1990352044e+01 +9.1746059378e+01 2.9340707265e+02 1.7295336437e+02 0.0000e+00 0.0000e+00
       24  2    5    5    0    0 +2.1233169151e+02 +2.6234771310e+01 +1.0603647174e+02 2.5191044451e+02 8.0262869787e+01 0.0000e+00 0.0000e+00
        5  1    5    5  502    0 +5.8740281231e+00 -3.8225123354e+01 -1.4290412360e+01 4.1496628143e+01 4.7000000000e+00 0.0000e+00 -1.0000e+00
      -13  1    6    6    0    0 +3.0099291088e+01 -5.4747494765e+00 -1.1581124585e+01 3.2711812125e+01 0.0000000000e+00 0.0000e+00 1.0000e+00
       14  1    6    6    0    0 +1.8223240042e+02 +3.1709520786e+01 +1.1761759632e+02 2.1919863238e+02 0.0000000000e+00 0.0000e+00 -1.0000e+00
       -5  1    3    3    0  501 -3.3845024974e+01 +6.1602203112e+01 +1.6023701106e+02 1.7503801547e+02 4.7000000000e+00 0.0000e+00 1.0000e+00
       13  1    4    4    0    0 -1.2468399757e+02 +1.4079627861e+00 +1.7777986630e+02 2.1714917101e+02 0.0000000000e+00 0.0000e+00 -1.0000e+00
      -14  1    4    4    0    0 -3.2201009508e+01 -4.6632991109e+01 +6.6046824430e+01 8.7027144561e+01 0.0000000000e+00 0.0000e+00 1.0000e+00
       -1  1    1    2    0  503 -2.7475687581e+01 -4.3868227443e+00 -1.5444120386e+02 1.5692750897e+02 0.0000000000e+00 0.0000e+00 1.0000e+00
<mgrwt>
<rscale>  3 0.26339593E+03</rscale>
<asrwt>0</asrwt>
<pdfrwt beam="1">  1       21 0.97762882E-01 0.26348148E+03</pdfrwt>
<pdfrwt beam="2">  1       -1 0.45244643E-01 0.26348148E+03</pdfrwt>
<totfact> 0.38148825E+02</totfact>
</mgrwt>
</event>
<event>
12      1 +1.4674046e+01 1.94989300e+02 7.54677100e-03 1.15573100e-01
       21 -1    0    0  501  502 +0.0000000000e+00 +0.0000000000e+00 +1.8057710334e+02 1.8057710334e+02 0.0000000000e+00 0.0000e+00 -1.0000e+00
       21 -1    0    0  502  503 -0.0000000000e+00 -0.0000000000e+00 -4.6019489557e+02 4.6019489557e+02 0.0000000000e+00 0.0000e+00 -1.0000e+00
       -6  2    1    2    0  503 -3.2654476612e+01 +6.4336500609e+01 -3.8079973196e+02 4.2781919159e+02 1.8115000601e+02 0.0000e+00 0.0000e+00
      -24  2    3    3    0    0 -9.2061412013e+01 +5.8755071302e+01 -2.6711113910e+02 2.9933758795e+02 7.9543503472e+01 0.0000e+00 0.0000e+00
        6  2    1    2  501    0 +3.2654476612e+01 -6.4336500609e+01 +1.0118193973e+02 2.1295280732e+02 1.7293239449e+02 0.0000e+00 0.0000e+00
       24  2    5    5    0    0 -2.8823977954e+01 -7.6284449723e+01 +3.4158319452e+01 1.2110178915e+02 8.2756954828e+01 0.0000e+00 0.0000e+00
        5  1    5    5  501    0 +6.1478454566e+01 +1.1947949114e+01 +6.7023620279e+01 9.1851018171e+01 4.7000000000e+00 0.0000e+00 -1.0000e+00
      -13  1    6    6    0    0 -2.1440118260e+01 +1.0306618834e+01 -7.2036090002e+00 2.4855523439e+01 0.0000000000e+00 0.0000e+00 1.0000e+00
       14  1    6    6    0    0 -7.3838596938e+00 -8.6591068556e+01 +4.1361928452e+01 9.6246265709e+01 0.0000000000e+00 0.0000e+00 -1.0000e+00
       -5  1    3    3    0  503 +5.9406935401e+01 +5.5814293066e+00 -1.1368859287e+02 1.2848160365e+02 4.7000000000e+00 0.0000e+00 1.0000e+00
       13  1    4    4    0    0 -9.5839855141e+01 +7.2721906553e+01 -2.3138133090e+02 2.6078932842e+02 0.0000000000e+00 0.0000e+00 -1.0000e+00
      -14  1    4    4    0    0 +3.7784431278e+00 -1.3966835251e+01 -3.5729808194e+01 3.8548259533e+01 0.0000000000e+00 0.0000e+00 1.0000e+00
<mgrwt>
<rscale>  2 0.19305838E+03</rscale>
<asrwt>0</asrwt>
<pdfrwt beam="1">  1       21 0.27781093E-01 0.19498929E+03</pdfrwt>
<pdfrwt beam="2">  1       21 0.70799214E-01 0.19498929E+03</pdfrwt>
<totfact> 0.22322882E+04</totfact>
</mgrwt>
</event>
<event>
12      1 +1.4674046e+01 2.42759900e+02 7.54677100e-03 1.11812800e-01
       21 -1    0    0  503  502 +0.0000000000e+00 +0.0000000000e+00 +3.4882410347e+02 3.4882410347e+02 0.0000000000e+00 0.0000e+00 -1.0000e+00
       21 -1    0    0  501  503 -0.0000000000e+00 -0.0000000000e+00 -2.5892308140e+02 2.5892308140e+02 0.0000000000e+00 0.0000e+00 -1.0000e+00
        6  2    1    2  501    0 +1.6231123394e+02 -4.9781166340e+01 -1.3491284816e+02 2.7687917088e+02 1.7215544569e+02 0.0000e+00 0.0000e+00
       24  2    3    3    0    0 +2.1176740180e+01 -1.0806668749e+01 -1.0479608470e+01 8.4671788261e+01 8.0586916553e+01 0.0000e+00 0.0000e+00
       -6  2    1    2    0  502 -1.6231123394e+02 +4.9781166340e+01 +2.2481387023e+02 3.3086801399e+02 1.7352021567e+02 0.0000e+00 0.0000e+00
      -24  2    5    5    0    0 -1.4332974406e+02 +1.0093861660e+01 +2.3310945426e+02 2.8585372931e+02 8.2018505966e+01 0.0000e+00 0.0000e+00
        5  1    3    3  501    0 +1.4113449376e+02 -3.8974497591e+01 -1.2443323969e+02 1.9220738262e+02 4.7000000000e+00 0.0000e+00 -1.0000e+00
      -13  1    4    4    0    0 -9.3387642627e+00 +1.8103546042e+01 -3.1624694392e+01 3.7617445323e+01 0.0000000000e+00 0.0000e+00 1.0000e+00
       14  1    4    4    0    0 +3.0515504443e+01 -2.8910214791e+01 +2.1145085922e+01 4.7054342938e+01 0.0000000000e+00 0.0000e+00 -1.0000e+00
       -5  1    5    5    0  502 -1.8981489884e+01 +3.9687304681e+01 -8.2955840250e+00 4.5014284681e+01 4.7000000000e+00 0.0000e+00 1.0000e+00
       13  1    6    6    0    0 -3.0214549125e+00 +2.3203772585e+01 +4.6048572892e+01 5.1652834553e+01 0.0000000000e+00 0.0000e+00 -1.0000e+00
      -14  1    6    6    0    0 -1.4030828915e+02 -1.3109910925e+01 +1.8706088136e+02 2.3420089476e+02 0.0000000000e+00 0.0000e+00 1.0000e+00
<mgrwt>
<rscale>  2 0.24251612E+03</rscale>
<asrwt>0</asrwt>
<pdfrwt beam="1">  1       21 0.53665247E-01 0.24275989E+03</pdfrwt>
<pdfrwt beam="2">  1       21 0.39834320E-01 0.24275989E+03</pdfrwt>
<totfact> 0.19405859E+04</totfact>
</mgrwt>
</event>
<event>
13      2 +1.4674046e+01 2.02461900e+02 7.54677100e-03 1.14783300e-01
       21 -1    0    0  504  502 +0.0000000000e+00 +0.0000000000e+00 +1.6472456705e+02 1.6472456705e+02 0.0000000000e+00 0.0000e+00 1.0000e+00
       21 -1    0    0  501  503 -0.0000000000e+00 -0.0000000000e+00 -6.2043280390e+02 6.2043280390e+02 0.0000000000e+00 0.0000e+00 1.0000e+00
        6  2    1    2  501    0 +5.7124626249e+01 -7.5919284769e+01 -1.6029166857e+02 2.5448057376e+02 1.7332046239e+02 0.0000e+00 0.0000e+00
       24  2    3    3    0    0 +4.8013386995e+01 +6.1602506382e+00 -2.7272065281e+01 9.7839679761e+01 8.0533243896e+01 0.0000e+00 0.0000e+00
       -6  2    1    2    0  502 +1.1286464845e+02 +1.1249693145e+02 -6.8100192972e+01 2.4448278567e+02 1.7245349446e+02 0.0000e+00 0.0000e+00
      -24  2    5    5    0    0 +1.4746863277e+01 +1.0942018185e+02 -3.2892587825e+01 1.4008818995e+02 7.9702775720e+01 0.0000e+00 0.0000e+00
        5  1    3    3  501    0 +9.1112392543e+00 -8.2079535408e+01 -1.3301960329e+02 1.5664089400e+02 4.7000000000e+00 0.0000e+00 -1.0000e+00
      -13  1    4    4    0    0 -2.9406251180e+00 +2.0645675847e+01 +1.8464848152e+01 2.7853937326e+01 0.0000000000e+00 0.0000e+00 1.0000e+00
       14  1    4    4    0    0 +5.0954012113e+01 -1.4485425209e+01 -4.5736913433e+01 6.9985742435e+01 0.0000000000e+00 0.0000e+00 -1.0000e+00
       -5  1    5    5    0  502 +9.8117785172e+01 +3.0767496034e+00 -3.5207605147e+01 1.0439459572e+02 4.7000000000e+00 0.0000e+00 1.0000e+00
       13  1    6    6    0    0 -1.6432643470e+01 +2.8277731880e+00 -2.3250471159e+01 2.8611404749e+01 0.0000000000e+00 0.0000e+00 -1.0000e+00
      -14  1    6    6    0    0 +3.1179506748e+01 +1.0659240866e+02 -9.6421166664e+00 1.1147678520e+02 0.0000000000e+00 0.0000e+00 1.0000e+00
       21  1    1    2  504  503 -1.6998927470e+02 -3.6577646682e+01 -2.2731637531e+02 2.8619401153e+02 0.0000000000e+00 0.0000e+00 1.0000e+00
<mgrwt>
<rscale>  3 0.20227622E+03</rscale>
<asrwt>0</asrwt>
<pdfrwt beam="1">  1       21 0.25342242E-01 0.20246190E+03</pdfrwt>
<pdfrwt beam="2">  1       21 0.95451198E-01 0.20246190E+03</pdfrwt>
<totfact> 0.13432350E+04</totfact>
</mgrwt>
</event>
<event>
12      1 +1.4674046e+01 2.66313000e+02 7.54677100e-03 1.10348800e-01
       21 -1    0    0  501  502 +0.0000000000e+00 +0.0000000000e+00 +4.3895088364e+02 4.3895088364e+02 0.0000000000e+00 0.0000e+00 1.0000e+00
       21 -1    0    0  502  503 -0.0000000000e+00 -0.0000000000e+00 -1.7113631929e+02 1.7113631929e+02 0.0000000000e+00 0.0000e+00 1.0000e+00
       -6  2    1    2    0  503 -1.7861495846e+02 -9.5570662760e+01 +6.0427553796e+01 2.7254905137e+02 1.7203034959e+02 0.0000e+00 0.0000e+00
      -24  2    3    3    0    0 -7.3401770139e+01 -1.1001905567e+02 +6.0520048991e+01 1.6624444371e+02 8.0514137051e+01 0.0000e+00 0.0000e+00
        6  2    1    2  501    0 +1.7861495846e+02 +9.5570662760e+01 +2.0738701055e+02 3.3753815156e+02 1.7287445342e+02 0.0000e+00 0.0000e+00
       24  2    5    5    0    0 +7.6068980838e+01 +1.9690492722e+01 +1.7033031927e+02 2.0461424061e+02 8.1733496503e+01 0.0000e+00 0.0000e+00
        5  1    5    5  501    0 +1.0254597762e+02 +7.5880170038e+01 +3.7056691283e+01 1.3292391094e+02 4.7000000000e+00 0.0000e+00 -1.0000e+00
      -13  1    6    6    0    0 +2.3523664140e+01 -3.1835900963e+01 +5.3858946344e+01 6.6840657283e+01 0.0000000000e+00 0.0000e+00 1.0000e+00
       14  1    6    6    0    0 +5.2545316698e+01 +5.1526393685e+01 +1.1647137292e+02 1.3777358333e+02 0.0000000000e+00 0.0000e+00 -1.0000e+00
       -5  1    3    3    0  503 -1.0521318832e+02 +1.4448392909e+01 -9.2495195350e-02 1.0630460766e+02 4.7000000000e+00 0.0000e+00 1.0000e+00
       13  1    4    4    0    0 -4.5998307024e+01 -6.2862262879e+01 +7.6736788236e+01 1.0934369215e+02 0.0000000000e+00 0.0000e+00 -1.0000e+00
      -14  1    4    4    0    0 -2.7403463115e+01 -4.7156792790e+01 -1.6216739245e+01 5.6900751565e+01 0.0000000000e+00 0.0000e+00 1.0000e+00
<mgrwt>
<rscale>  2 0.26617614E+03</rscale>
<asrwt>0</asrwt>
<pdfrwt beam="1">  1       21 0.67530905E-01 0.26631303E+03</pdfrwt>
<pdfrwt beam="2">  1       21 0.26328665E-01 0.26631303E+03</pdfrwt>
<totfact> 0.26508967E+04</totfact>
</mgrwt>
</event>
<event>
14      3 +1.4674046e+01 2.58930700e+02 7.54677100e-03 1.12505300e-01
       21 -1    0    0  502  503 +0.0000000000e+00 +0.0000000000e+00 +1.3058499204e+02 1.3058499204e+02 0.0000000000e+00 0.0000e+00 1.0000e+00
        2 -1    0    0  501    0 -0.0000000000e+00 -0.0000000000e+00 -1.9133403982e+03 1.9133403982e+03 0.0000000000e+00 0.0000e+00 -1.0000e+00
        6  2    1    2  501    0 -1.2349289482e+01 +1.6385213164e+02 -3.7605302902e+01 2.4206546919e+02 1.7372825497e+02 0.0000e+00 0.0000e+00
       24  2    3    3    0    0 -1.4383385919e+01 +1.8584210293e+02 -5.7960490560e+01 2.1166612627e+02 8.1847184013e+01 0.0000e+00 0.0000e+00
       -6  2    1    2    0  503 -2.2959756033e+01 +2.6711327131e+01 -2.9911528731e+02 3.4289527122e+02 1.6391023924e+02 0.0000e+00 0.0000e+00
      -24  2    5    5    0    0 -4.6293519295e+00 -2.9857471897e+01 -1.9614738407e+02 2.1393660620e+02 7.9888520235e+01 0.0000e+00 0.0000e+00
        5  1    3    3  501    0 +2.0340964371e+00 -2.1989971290e+01 +2.0355187659e+01 3.0399342925e+01 4.7000000000e+00 0.0000e+00 -1.0000e+00
      -13  1    4    4    0    0 -3.5209019076e+01 +1.6606456429e+02 -6.5529885387e+01 1.8196505273e+02 0.0000000000e+00 0.0000e+00 1.0000e+00
       14  1    4    4    0    0 +2.0825633156e+01 +1.9777538639e+01 +7.5693948270e+00 2.9701073533e+01 0.0000000000e+00 0.0000e+00 -1.0000e+00
       -5  1    5    5    0  504 -3.4102264493e+01 +4.2639865113e+01 -8.5770155845e+01 1.0178276953e+02 4.7000000000e+00 0.0000e+00 1.0000e+00
       13  1    6    6    0    0 -3.0100266202e+01 -1.2151142480e+01 -2.7748117062e+01 4.2704031303e+01 0.0000000000e+00 0.0000e+00 -1.0000e+00
      -14  1    6    6    0    0 +2.5470914273e+01 -1.7706329416e+01 -1.6839926701e+02 1.7123257490e+02 0.0000000000e+00 0.0000e+00 1.0000e+00
       21  1    5    5  504  503 +1.5771860390e+01 +1.3928933915e+01 -1.7197747388e+01 2.7175895485e+01 0.0000000000e+00 0.0000e+00 -1.0000e+00
        2  1    1    2  502    0 +3.5309045516e+01 -1.9056345877e+02 -1.4460348159e+03 1.4589646498e+03 0.0000000000e+00 0.0000e+00 -1.0000e+00
<mgrwt>
<rscale>  4 0.23226831E+03</rscale>
<asrwt>0</asrwt>
<pdfrwt beam="1">  1       21 0.20090001E-01 0.25893071E+03</pdfrwt>
<pdfrwt beam="2">  1        2 0.29436003E+00 0.25893071E+03</pdfrwt>
<totfact> 0.23635196E+03</totfact>
</mgrwt>
</event>
<event>
13      2 +1.4674046e+01 2.21860200e+02 7.54677100e-03 1.13253600e-01
       -1 -1    0    0    0  501 -0.0000000000e+00 +0.0000000000e+00 +6.9049613352e+02 6.9049613352e+02 0.0000000000e+00 0.0000e+00 -1.0000e+00
       21 -1    0    0  502  503 +0.0000000000e+00 -0.0000000000e+00 -3.7688021992e+02 3.7688021992e+02 0.0000000000e+00 0.0000e+00 -1.0000e+00
       -6  2    1    2    0  501 +1.0936996103e+02 -1.3797346386e+01 +1.5585318362e+00 2.0470774307e+02 1.7248384246e+02 0.0000e+00 0.0000e+00
      -24  2    3    3    0    0 +1.3333247497e+02 -4.2973664090e+01 -1.6363467333e+01 1.6265126148e+02 8.1014721583e+01 0.0000e+00 0.0000e+00
        6  2    1    2  502    0 -1.5289546317e+02 -2.1860670742e+01 -2.2482501645e+02 3.2284579405e+02 1.7270844545e+02 0.0000e+00 0.0000e+00
       24  2    5    5    0    0 -3.5800915260e+01 -4.3627419531e+01 -4.5510440510e+01 1.0753037043e+02 7.9413620375e+01 0.0000e+00 0.0000e+00
        5  1    5    5  502    0 -1.1709454791e+02 +2.1766748789e+01 -1.7931457594e+02 2.1531542362e+02 4.7000000000e+00 0.0000e+00 -1.0000e+00
      -13  1    6    6    0    0 -6.3722207084e+00 +1.0592070641e+01 -4.4124920747e+01 4.5823637876e+01 0.0000000000e+00 0.0000e+00 1.0000e+00
       14  1    6    6    0    0 -2.9428694552e+01 -5.4219490173e+01 -1.3855197629e+00 6.1706732555e+01 0.0000000000e+00 0.0000e+00 -1.0000e+00
       -5  1    3    3    0  501 -2.3962513941e+01 +2.9176317704e+01 +1.7921999169e+01 4.2056481586e+01 4.7000000000e+00 0.0000e+00 1.0000e+00
       13  1    4    4    0    0 -6.5765452207e+00 +9.7396781065e+00 -4.8006996994e+00 1.2694841246e+01 0.0000000000e+00 0.0000e+00 -1.0000e+00
      -14  1    4    4    0    0 +1.3990902019e+02 -5.2713342197e+01 -1.1562767634e+01 1.4995642024e+02 0.0000000000e+00 0.0000e+00 1.0000e+00
       -1  1    1    2    0  503 +4.3525502146e+01 +3.5658017128e+01 +5.3688239821e+02 5.3982281633e+02 0.0000000000e+00 0.0000e+00 -1.0000e+00
<mgrwt>
<rscale>  3 0.22181649E+03</rscale>
<asrwt>0</asrwt>
<pdfrwt beam="2">  1       21 0.57981572E-01 0.22186020E+03</pdfrwt>
<pdfrwt beam="1">  1       -1 0.10623017E+00 0.22186020E+03</pdfrwt>
<totfact> 0.22657982E+02</totfact>
</mgrwt>
</event>
<event>
14      3 +1.4674046e+01 3.13807400e+02 7.54677100e-03 1.07875300e-01
        1 -1    0    0  501    0 -0.0000000000e+00 +0.0000000000e+00 +1.7285829159e+03 1.7285829159e+03 0.0000000000e+00 0.0000e+00 1.0000e+00
       21 -1    0    0  504  503 +0.0000000000e+00 -0.0000000000e+00 -2.8712982549e+02 2.8712982549e+02 0.0000000000e+00 0.0000e+00 -1.0000e+00
        6  2    1    2  501    0 -7.6147612373e+01 -2.5826638089e+02 +1.2670820414e+02 3.4491086589e+02 1.7438048642e+02 0.0000e+00 0.0000e+00
       24  2    3    3    0    0 -2.5470329228e+01 -1.3301254557e+02 -2.6532452251e+00 1.5779276182e+02 8.0934794882e+01 0.0000e+00 0.0000e+00
       -6  2    1    2    0  503 +9.1329649657e+01 +2.5076195059e+02 -9.6385692537e-01 3.1698365533e+02 1.7104107096e+02 0.0000e+00 0.0000e+00
      -24  2    5    5    0    0 -4.9460042006e+00 +1.1180358897e+02 -3.8473307209e+01 1.4375699269e+02 8.1617229274e+01 0.0000e+00 0.0000e+00
        5  1    3    3  501    0 -5.0677283145e+01 -1.2525383532e+02 +1.2936144936e+02 1.8711810407e+02 4.7000000000e+00 0.0000e+00 -1.0000e+00
      -13  1    4    4    0    0 -1.3054264361e+01 -4.9359712251e+01 +3.8303784052e+01 6.3827696843e+01 0.0000000000e+00 0.0000e+00 1.0000e+00
       14  1    4    4    0    0 -1.2416064867e+01 -8.3652833322e+01 -4.0957029277e+01 9.3965064981e+01 0.0000000000e+00 0.0000e+00 -1.0000e+00
       -5  1    5    5    0  503 +9.6275653857e+01 +1.3895836162e+02 +3.7509450284e+01 1.7322666265e+02 4.7000000000e+00 0.0000e+00 1.0000e+00
       13  1    6    6    0    0 -1.7273614181e+01 +2.7666260316e+01 -4.8166644548e+01 5.8170657154e+01 0.0000000000e+00 0.0000e+00 -1.0000e+00
      -14  1    6    6    0    0 +1.2327609980e+01 +8.4137328654e+01 +9.6933373391e+00 8.5586335531e+01 0.0000000000e+00 0.0000e+00 1.0000e+00
       21  1    1    2  504  502 -2.2976206733e+01 -2.4777082064e+01 -3.6990683051e+00 3.3992542973e+01 0.0000000000e+00 0.0000e+00 -1.0000e+00
        1  1    1    2  502    0 +7.7941694487e+00 +3.2281512361e+01 +1.3194078115e+03 1.3198256772e+03 0.0000000000e+00 0.0000e+00 1.0000e+00
<mgrwt>
<rscale>  4 0.31334558E+03</rscale>
<asrwt>0</asrwt>
<pdfrwt beam="2">  1       21 0.44173821E-01 0.31380744E+03</pdfrwt>
<pdfrwt beam="1">  1        1 0.26593583E+00 0.31380744E+03</pdfrwt>
<totfact> 0.26336234E+02</totfact>
</mgrwt>
</event>
<event>
13      2 +1.4674046e+01 1.85993400e+02 7.54677100e-03 1.16246100e-01
       21 -1    0    0  503  502 +0.0000000000e+00 +0.0000000000e+00 +4.2889724279e+02 4.2889724279e+02 0.0000000000e+00 0.0000e+00 1.0000e+00
       21 -1    0    0  504  503 -0.0000000000e+00 -0.0000000000e+00 -3.7989580500e+02 3.7989580500e+02 0.0000000000e+00 0.0000e+00 1.0000e+00
        6  2    1    2  501    0 -7.6016158122e+01 +4.0759599147e+01 +7.1323478566e+01 2.0591802787e+02 1.7284500105e+02 0.0000e+00 0.0000e+00
       24  2    3    3    0    0 -5.4955343560e+01 +7.1858542117e+00 -2.6299359501e+01 1.0045209606e+02 7.9543956442e+01 0.0000e+00 0.0000e+00
       -6  2    1    2    0  502 +4.4344039909e+01 -4.3518323337e+01 +2.6070404098e+02 3.1806895155e+02 1.7129221411e+02 0.0000e+00 0.0000e+00
      -24  2    5    5    0    0 -3.0022682268e+01 +5.0040666328e+00 +9.3366315901e+01 1.2857268264e+02 8.2989539362e+01 0.0000e+00 0.0000e+00
        5  1    3    3  501    0 -2.1060814562e+01 +3.3573744936e+01 +9.7622838067e+01 1.0546593180e+02 4.7000000000e+00 0.0000e+00 -1.0000e+00
      -13  1    4    4    0    0 -5.7672241664e+01 -2.4789934787e+01 -7.3991909957e+00 6.3208989493e+01 0.0000000000e+00 0.0000e+00 1.0000e+00
       14  1    4    4    0    0 +2.7168981042e+00 +3.1975788998e+01 -1.8900168505e+01 3.7243106569e+01 0.0000000000e+00 0.0000e+00 -1.0000e+00
       -5  1    5    5    0  502 +7.4366722176e+01 -4.8522389970e+01 +1.6733772508e+02 1.8949626891e+02 4.7000000000e+00 0.0000e+00 1.0000e+00
       13  1    6    6    0    0 -2.9169020094e+01 -3.5138822961e+01 +3.4137996510e+01 5.7017290518e+01 0.0000000000e+00 0.0000e+00 -1.0000e+00
      -14  1    6    6    0    0 -8.5366217355e-01 +4.0142889594e+01 +5.9228319391e+01 7.1555392124e+01 0.0000000000e+00 0.0000e+00 1.0000e+00
       21  1    1    2  504  501 +3.1672118214e+01 +2.7587241893e+00 -2.8302608176e+02 2.8480606838e+02 0.0000000000e+00 0.0000e+00 1.0000e+00
<mgrwt>
<rscale>  3 0.18563186E+03</rscale>
<asrwt>0</asrwt>
<pdfrwt beam="1">  1       21 0.65984191E-01 0.18599344E+03</pdfrwt>
<pdfrwt beam="2">  1       21 0.58445509E-01 0.18599344E+03</pdfrwt>
<totfact> 0.58112259E+03</totfact>
</mgrwt>
</event>
<event>
13      2 +1.4674046e+01 1.81689700e+02 7.54677100e-03 1.16634600e-01
       21 -1    0    0  501  502 +0.0000000000e+00 +0.0000000000e+00 +1.1287884096e+03 1.1287884096e+03 0.0000000000e+00 0.0000e+00 1.0000e+00
       21 -1    0    0  504  503 -0.0000000000e+00 -0.0000000000e+00 -6.9641149465e+01 6.9641149465e+01 0.0000000000e+00 0.0000e+00 1.0000e+00
       -6  2    1    2    0  503 -1.2492104451e+02 -1.2048853181e+01 +6.2323060847e+02 6.5868500133e+02 1.7233426071e+02 0.0000e+00 0.0000e+00
      -24  2    3    3    0    0 +4.5453652486e+00 -1.1656964657e+01 +2.6689745739e+02 2.7953185365e+02 8.2141702413e+01 0.0000e+00 0.0000e+00
        6  2    1    2  501    0 +1.4843190395e+01 -5.5065124375e+01 +1.9131661258e+02 2.6324754317e+02 1.7159468089e+02 0.0000e+00 0.0000e+00
       24  2    5    5    0    0 +5.2651282237e+01 +1.8388696880e+01 +1.1625956653e+02 1.5153109036e+02 7.9593233639e+01 0.0000e+00 0.0000e+00
        5  1    5    5  501    0 -3.7808091842e+01 -7.3453821255e+01 +7.5057046050e+01 1.1171645281e+02 4.7000000000e+00 0.0000e+00 -1.0000e+00
      -13  1    6    6    0    0 -1.1675762204e+01 -6.1309017359e+00 +6.3344326544e+01 6.4702512196e+01 0.0000000000e+00 0.0000e+00 1.0000e+00
       14  1    6    6    0    0 +6.4327044441e+01 +2.4519598616e+01 +5.2915239988e+01 8.6828578163e+01 0.0000000000e+00 0.0000e+00 -1.0000e+00
       -5  1    3    3    0  503 -1.2946640976e+02 -3.9188852395e-01 +3.5633315109e+02 3.7915314768e+02 4.7000000000e+00 0.0000e+00 1.0000e+00
       13  1    4    4    0    0 +3.3535409771e+01 -2.1536933270e+01 +2.1957602096e+02 2.2316382365e+02 0.0000000000e+00 0.0000e+00 -1.0000e+00
      -14  1    4    4    0    0 -2.8990044522e+01 +9.8799686127e+00 +4.7321436425e+01 5.6368030004e+01 0.0000000000e+00 0.0000e+00 1.0000e+00
       21  1    1    2  504  502 +1.1007785411e+02 +6.7113977556e+01 +2.4460003909e+02 2.7649701458e+02 0.0000000000e+00 0.0000e+00 1.0000e+00
<mgrwt>
<rscale>  3 0.18151414E+03</rscale>
<asrwt>0</asrwt>
<pdfrwt beam="1">  1       21 0.17365974E+00 0.18168973E+03</pdfrwt>
<pdfrwt beam="2">  1       21 0.10714024E-01 0.18168973E+03</pdfrwt>
<totfact> 0.14568938E+04</totfact>
</mgrwt>
</event>
<event>
14      3 +1.4674046e+01 1.86967800e+02 7.54677100e-03 1.16133900e-01
        2 -1    0    0  504    0 -0.0000000000e+00 +0.0000000000e+00 +1.3033944219e+03 1.3033944219e+03 0.0000000000e+00 0.0000e+00 -1.0000e+00
       21 -1    0    0  501  503 +0.0000000000e+00 -0.0000000000e+00 -2.3254697993e+02 2.3254697993e+02 0.0000000000e+00 0.0000e+00 1.0000e+00
       -6  2    1    2    0  502 -3.9943531686e+01 -8.0386271037e+01 +9.4240444537e+01 2.1659495226e+02 1.7313195448e+02 0.0000e+00 0.0000e+00
      -24  2    3    3    0    0 -7.0469579551e+01 -6.9134434800e+00 +2.1952113007e+01 1.0899481814e+02 7.9901300194e+01 0.0000e+00 0.0000e+00
        6  2    1    2  501    0 +3.6161780082e+00 -3.5350859363e+00 +3.7762675400e+02 4.1523109030e+02 1.7259582683e+02 0.0000e+00 0.0000e+00
       24  2    5    5    0    0 +4.1595655865e+01 +2.6942913432e+01 +1.1484876513e+02 1.4793778582e+02 7.8988799531e+01 0.0000e+00 0.0000e+00
        5  1    5    5  501    0 -3.7979477857e+01 -3.0477999368e+01 +2.6277798887e+02 2.6729330448e+02 4.7000000000e+00 0.0000e+00 -1.0000e+00
      -13  1    6    6    0    0 +3.8748685634e+01 +5.2511095944e+01 +9.5847336983e+01 1.1595511132e+02 0.0000000000e+00 0.0000e+00 1.0000e+00
       14  1    6    6    0    0 +2.8469702310e+00 -2.5568182512e+01 +1.9001428146e+01 3.1982674498e+01 0.0000000000e+00 0.0000e+00 -1.0000e+00
       -5  1    3    3    0  502 +3.0526047865e+01 -7.3472827557e+01 +7.2288331529e+01 1.0760013412e+02 4.7000000000e+00 0.0000e+00 1.0000e+00
       13  1    4    4    0    0 -5.4539366383e+01 -3.5860177290e+00 +5.1605038301e+01 7.5169687951e+01 0.0000000000e+00 0.0000e+00 -1.0000e+00
      -14  1    4    4    0    0 -1.5930213168e+01 -3.3274257511e+00 -2.9652925294e+01 3.3825130187e+01 0.0000000000e+00 0.0000e+00 1.0000e+00
       21  1    1    2  504  503 -2.4267648314e+01 -5.8451385267e+00 -1.4761240365e+02 1.4970806962e+02 0.0000000000e+00 0.0000e+00 1.0000e+00
        2  1    1    2  502    0 +6.0595001992e+01 +8.9766495500e+01 +7.4659264706e+02 7.5440728961e+02 0.0000000000e+00 0.0000e+00 -1.0000e+00
<mgrwt>
<rscale>  4 0.18684360E+03</rscale>
<asrwt>0</asrwt>
<pdfrwt beam="2">  1       21 0.35776459E-01 0.18696781E+03</pdfrwt>
<pdfrwt beam="1">  1        2 0.20052221E+00 0.18696781E+03</pdfrwt>
<totfact> 0.16915881E+03</totfact>
</mgrwt>
</event>
<event>
13      2 +1.4674046e+01 3.17148100e+02 7.54677100e-03 1.07711700e-01
        2 -1    0    0  503    0 -0.0000000000e+00 +0.0000000000e+00 +5.2717613877e+02 5.2717613877e+02 0.0000000000e+00 0.0000e+00 -1.0000e+00
       21 -1    0    0  501  503 +0.0000000000e+00 -0.0000000000e+00 -3.3101218632e+02 3.3101218632e+02 0.0000000000e+00 0.0000e+00 1.0000e+00
       -6  2    1    2    0  502 +2.0649007477e+02 -4.8292881396e+01 +2.7299312805e+02 3.8553249575e+02 1.7070355573e+02 0.0000e+00 0.0000e+00
      -24  2    3    3    0    0 +9.5958741642e+01 -2.9074818084e+01 +4.5849549214e+01 1.3214977146e+02 7.2855718988e+01 0.0000e+00 0.0000e+00
        6  2    1    2  501    0 -2.6167266871e+02 +1.1122853816e+02 -1.4659151222e+02 3.6369345429e+02 1.7303029788e+02 0.0000e+00 0.0000e+00
       24  2    5    5    0    0 -2.1685541504e+02 +3.9168400764e+01 -1.5023146478e+02 2.7862531170e+02 8.0635827402e+01 0.0000e+00 0.0000e+00
        5  1    5    5  501    0 -4.4817253671e+01 +7.2060137401e+01 +3.6399525581e+00 8.5068142589e+01 4.7000000000e+00 0.0000e+00 -1.0000e+00
      -13  1    6    6    0    0 -1.2525554047e+02 +5.6812504680e+01 -6.4424076572e+01 1.5187848020e+02 0.0000000000e+00 0.0000e+00 1.0000e+00
       14  1    6    6    0    0 -9.1599874565e+01 -1.7644103916e+01 -8.5807388204e+01 1.2674683149e+02 0.0000000000e+00 0.0000e+00 -1.0000e+00
       -5  1    3    3    0  502 +1.1053133313e+02 -1.9218063311e+01 +2.2714357884e+02 2.5338272429e+02 4.7000000000e+00 0.0000e+00 1.0000e+00
       13  1    4    4    0    0 +1.8753718753e+01 +1.1244021581e-01 +4.5930547864e+01 4.9611791310e+01 0.0000000000e+00 0.0000e+00 -1.0000e+00
      -14  1    4    4    0    0 +7.7205022888e+01 -2.9187258300e+01 -8.0998649214e-02 8.2537980149e+01 0.0000000000e+00 0.0000e+00 1.0000e+00
        2  1    1    2  502    0 +5.5182593936e+01 -6.2935656769e+01 +6.9762336620e+01 1.0896237505e+02 0.0000000000e+00 0.0000e+00 -1.0000e+00
<mgrwt>
<rscale>  3 0.31683178E+03</rscale>
<asrwt>0</asrwt>
<pdfrwt beam="2">  1       21 0.50924952E-01 0.31714811E+03</pdfrwt>
<pdfrwt beam="1">  1        2 0.81104021E-01 0.31714811E+03</pdfrwt>
<totfact> 0.25853473E+03</totfact>
</mgrwt>
</event>
<event>
13      2 +1.4674046e+01 1.94260600e+02 7.54677100e-03 1.15470200e-01
       21 -1    0    0  503  502 +0.0000000000e+00 +0.0000000000e+00 +9.3064372866e+02 9.3064372866e+02 0.0000000000e+00 0.0000e+00 1.0000e+00
       21 -1    0    0  504  503 -0.0000000000e+00 -0.0000000000e+00 -1.6904556794e+02 1.6904556794e+02 0.0000000000e+00 0.0000e+00 -1.0000e+00
        6  2    1    2  501    0 +3.7135540081e+01 +5.6015446523e+01 +3.1929724871e+02 3.6953522047e+02 1.7346114133e+02 0.0000e+00 0.0000e+00
       24  2    3    3    0    0 +1.3556688933e+01 +2.4908695978e+01 +3.1566679584e+02 3.3005278971e+02 9.2114553928e+01 0.0000e+00 0.0000e+00
       -6  2    1    2    0  502 -6.8319501861e+01 -7.5423205017e+01 +5.6625839939e+02 6.0086927719e+02 1.7331791366e+02 0.0000e+00 0.0000e+00
      -24  2    5    5    0    0 -9.9415977182e+01 -9.7206547748e+01 +4.3832993395e+02 4.6734292373e+02 8.3328434018e+01 0.0000e+00 0.0000e+00
        5  1    3    3  501    0 +2.3578851147e+01 +3.1106750545e+01 +3.6304528619e+00 3.9482430762e+01 4.7000000000e+00 0.0000e+00 -1.0000e+00
      -13  1    4    4    0    0 +5.2175658141e+01 +3.9045633434e+00 +1.7893068728e+02 1.8642353866e+02 0.0000000000e+00 0.0000e+00 1.0000e+00
       14  1    4    4    0    0 -3.8618969207e+01 +2.1004132635e+01 +1.3673610857e+02 1.4362925105e+02 0.0000000000e+00 0.0000e+00 -1.0000e+00
       -5  1    5    5    0  502 +3.1096475320e+01 +2.1783342731e+01 +1.2792846544e+02 1.3352635346e+02 4.7000000000e+00 0.0000e+00 1.0000e+00
       13  1    6    6    0    0 -1.6430501116e+01 -2.2486065602e+01 +1.9796165008e+01 3.4168299083e+01 0.0000000000e+00 0.0000e+00 -1.0000e+00
      -14  1    6    6    0    0 -8.2985476066e+01 -7.4720482146e+01 +4.1853376894e+02 4.3317462464e+02 0.0000000000e+00 0.0000e+00 1.0000e+00
       21  1    1    2  504  501 +3.1183961781e+01 +1.9407758494e+01 -1.2395748737e+02 1.2928479894e+02 0.0000000000e+00 0.0000e+00 -1.0000e+00
<mgrwt>
<rscale>  3 0.19422860E+03</rscale>
<asrwt>0</asrwt>
<pdfrwt beam="1">  1       21 0.14317595E+00 0.19426057E+03</pdfrwt>
<pdfrwt beam="2">  1       21 0.26007011E-01 0.19426057E+03</pdfrwt>
<totfact> 0.47354558E+03</totfact>
</mgrwt>
</event>
<event>
13      2 +1.4674046e+01 2.57750200e+02 7.54677100e-03 1.10888200e-01
       21 -1    0    0  504  502 +0.0000000000e+00 +0.0000000000e+00 +7.9867376325e+01 7.9867376325e+01 0.0000000000e+00 0.0000e+00 1.0000e+00
       21 -1    0    0  501  503 -0.0000000000e+00 -0.0000000000e+00 -1.2694421359e+03 1.2694421359e+03 0.0000000000e+00 0.0000e+00 -1.0000e+00
        6  2    1    2  501    0 -1.0190916549e+02 -1.8621343731e+02 -6.4771748952e+02 7.0217313216e+02 1.6866605782e+02 0.0000e+00 0.0000e+00
       24  2    3    3    0    0 -4.5676208808e+01 -1.0516196397e+02 -2.0174332540e+02 2.4539470469e+02 7.9830050903e+01 0.0000e+00 0.0000e+00
       -6  2    1    2    0  502 +9.8595740317e+01 +1.5349408025e+02 -2.5291364781e+02 3.5632724687e+02 1.7240139480e+02 0.0000e+00 0.0000e+00
      -24  2    5    5    0    0 +6.0688613898e+01 +8.4032634099e+00 -1.0203847142e+02 1.4355106348e+02 8.0257930974e+01 0.0000e+00 0.0000e+00
        5  1    3    3  501    0 -5.6232956682e+01 -8.1051473336e+01 -4.4597416411e+02 4.5677842747e+02 4.7000000000e+00 0.0000e+00 -1.0000e+00
      -13  1    4    4    0    0 +2.0460880283e+01 -1.1476424296e+01 -2.1858318501e+01 3.2064653815e+01 0.0000000000e+00 0.0000e+00 1.0000e+00
       14  1    4    4    0    0 -6.6137089091e+01 -9.3685539678e+01 -1.7988500690e+02 2.1333005087e+02 0.0000000000e+00 0.0000e+00 -1.0000e+00
       -5  1    5    5    0  502 +3.7907126418e+01 +1.4509081684e+02 -1.5087517639e+02 2.1277618338e+02 4.7000000000e+00 0.0000e+00 1.0000e+00
       13  1    6    6    0    0 +7.0838754103e+01 +2.5038664604e+01 -5.6465107421e+01 9.3986021110e+01 0.0000000000e+00 0.0000e+00 -1.0000e+00
      -14  1    6    6    0    0 -1.0150140205e+01 -1.6635401194e+01 -4.5573364001e+01 4.9565042373e+01 0.0000000000e+00 0.0000e+00 1.0000e+00
       21  1    1    2  504  503 +3.3134251739e+00 +3.2719357060e+01 -2.8894362230e+02 2.9080913324e+02 0.0000000000e+00 0.0000e+00 -1.0000e+00
<mgrwt>
<rscale>  3 0.25712706E+03</rscale>
<asrwt>0</asrwt>
<pdfrwt beam="1">  1       21 0.12287289E-01 0.25775016E+03</pdfrwt>
<pdfrwt beam="2">  1       21 0.19529878E+00 0.25775016E+03</pdfrwt>
<totfact> 0.77072864E+03</totfact>
</mgrwt>
</event>
<event>
13      2 +1.4674046e+01 2.15511900e+02 7.54677100e-03 1.14141400e-01
       21 -1    0    0  501  502 +0.0000000000e+00 +0.0000000000e+00 +4.6315772836e+01 4.6315772836e+01 0.0000000000e+00 0.0000e+00 1.0000e+00
       21 -1    0    0  504  503 -0.0000000000e+00 -0.0000000000e+00 -1.3955073212e+03 1.3955073212e+03 0.0000000000e+00 0.0000e+00 1.0000e+00
       -6  2    1    2    0  503 -7.8652468016e+01 -1.3020388810e+01 -7.9634977022e+02 8.2369985340e+02 1.9481465734e+02 0.0000e+00 0.0000e+00
      -24  2    3    3    0    0 -8.5614881547e+01 +3.7312893093e+01 -3.1022824997e+02 3.3490732388e+02 8.4848032233e+01 0.0000e+00 0.0000e+00
        6  2    1    2  501    0 +9.6372148581e+01 -2.1127917431e+01 -2.8258529580e+02 3.4514217875e+02 1.7185660951e+02 0.0000e+00 0.0000e+00
       24  2    5    5    0    0 +2.1179914040e+01 +4.7479963309e+01 -1.4923932858e+02 1.7732039707e+02 8.0418967571e+01 0.0000e+00 0.0000e+00
        5  1    5    5  501    0 +7.5192234541e+01 -6.8607880740e+01 -1.3334596722e+02 1.6782178169e+02 4.7000000000e+00 0.0000e+00 -1.0000e+00
      -13  1    6    6    0    0 +2.7856883607e+01 -5.3655711446e+00 -1.3327602458e+01 3.1343584755e+01 0.0000000000e+00 0.0000e+00 1.0000e+00
       14  1    6    6    0    0 -6.6769695670e+00 +5.2845534453e+01 -1.3591172613e+02 1.4597681231e+02 0.0000000000e+00 0.0000e+00 -1.0000e+00
       -5  1    3    3    0  503 +6.9624135314e+00 -5.0333281903e+01 -4.8612152025e+02 4.8879252952e+02 4.7000000000e+00 0.0000e+00 1.0000e+00
       13  1    4    4    0    0 -1.0531690707e+01 -2.3888319317e+01 -3.9281197380e+01 4.7165461691e+01 0.0000000000e+00 0.0000e+00 -1.0000e+00
      -14  1    4    4    0    0 -7.5083190840e+01 +6.1201212410e+01 -2.7094705259e+02 2.8774186219e+02 0.0000000000e+00 0.0000e+00 1.0000e+00
       21  1    1    2  504  502 -1.7719680565e+01 +3.4148306241e+01 -2.7025648237e+02 2.7298106191e+02 0.0000000000e+00 0.0000e+00 1.0000e+00
<mgrwt>
<rscale>  3 0.21019167E+03</rscale>
<asrwt>0</asrwt>
<pdfrwt beam="1">  1       21 0.71255032E-02 0.21551194E+03</pdfrwt>
<pdfrwt beam="2">  1       21 0.21469344E+00 0.21551194E+03</pdfrwt>
<totfact> 0.15625953E+04</totfact>
</mgrwt>
</event>
<event>
14      3 +1.4674046e+01 3.30898300e+02 7.54677100e-03 1.07075700e-01
       21 -1    0    0  504  503 +0.0000000000e+00 +0.0000000000e+00 +1.1622014438e+02 1.1622014438e+02 0.0000000000e+00 0.0000e+00 1.0000e+00
        1 -1    0    0  501    0 -0.0000000000e+00 -0.0000000000e+00 -2.0445448047e+03 2.0445448047e+03 0.0000000000e+00 0.0000e+00 1.0000e+00
        6  2    1    2  501    0 +1.3566498126e+02 +2.1660645189e+02 -3.9958857024e+02 5.0463459676e+02 1.7222574908e+02 0.0000e+00 0.0000e+00
       24  2    3    3    0    0 +1.4944587545e+02 +2.0577408375e+02 -4.0596847948e+02 4.8539800438e+02 7.8254540412e+01 0.0000e+00 0.0000e+00
       -6  2    1    2    0  503 -1.6905551391e+02 -2.6018827043e+02 -5.9501166742e+02 6.9272997748e+02 1.7192508392e+02 0.0000e+00 0.0000e+00
      -24  2    5    5    0    0 -9.0561790043e+01 -2.3994644239e+02 -5.0289665176e+02 5.6993640111e+02 7.8401058174e+01 0.0000e+00 0.0000e+00
        5  1    3    3  501    0 -1.3780894197e+01 +1.0832368137e+01 +6.3799092430e+00 1.9236592377e+01 4.7000000000e+00 0.0000e+00 -1.0000e+00
      -13  1    4    4    0    0 +1.3696500946e+02 +1.4676017488e+02 -2.6822576010e+02 3.3502689613e+02 0.0000000000e+00 0.0000e+00 1.0000e+00
       14  1    4    4    0    0 +1.2480865992e+01 +5.9013908871e+01 -1.3774271938e+02 1.5037110826e+02 0.0000000000e+00 0.0000e+00 -1.0000e+00
       -5  1    5    5    0  503 -7.8493723865e+01 -2.0241828041e+01 -9.2115015651e+01 1.2279357637e+02 4.7000000000e+00 0.0000e+00 1.0000e+00
       13  1    6    6    0    0 -5.6237768156e+01 -7.0364622278e+01 -2.2768242898e+02 2.4485333386e+02 0.0000000000e+00 0.0000e+00 -1.0000e+00
      -14  1    6    6    0    0 -3.4324021887e+01 -1.6958182011e+02 -2.7521422279e+02 3.2508306725e+02 0.0000000000e+00 0.0000e+00 1.0000e+00
       21  1    1    2  504  502 +1.6942079689e+01 +2.8091578515e+01 -3.6004660027e+00 3.3002033317e+01 0.0000000000e+00 0.0000e+00 1.0000e+00
        1  1    1    2  502    0 +1.6448452963e+01 +1.5490240026e+01 -9.3012395667e+02 9.3039834152e+02 0.0000000000e+00 0.0000e+00 1.0000e+00
<mgrwt>
<rscale>  4 0.33085917E+03</rscale>
<asrwt>0</asrwt>
<pdfrwt beam="1">  1       21 0.17880025E-01 0.33089827E+03</pdfrwt>
<pdfrwt beam="2">  1        1 0.31454530E+00 0.33089827E+03</pdfrwt>
<totfact> 0.95829441E+02</totfact>
</mgrwt>
</event>
<event>
12      1 +1.4674046e+01 2.63973500e+02 7.54677100e-03 1.10480800e-01
       21 -1    0    0  503  502 +0.0000000000e+00 +0.0000000000e+00 +1.3899974089e+02 1.3899974089e+02 0.0000000000e+00 0.0000e+00 1.0000e+00
       21 -1    0    0  501  503 -0.0000000000e+00 -0.0000000000e+00 -6.1286525286e+02 6.1286525286e+02 0.0000000000e+00 0.0000e+00 1.0000e+00
        6  2    1    2  501    0 -1.9419093272e+02 +4.4790865338e+01 -7.6349732385e+01 2.7479316679e+02 1.7310592974e+02 0.0000e+00 0.0000e+00
       24  2    3    3    0    0 -1.2557031520e+02 +3.1682427546e+01 -1.1838580545e+02 1.9312468003e+02 8.0686199769e+01 0.0000e+00 0.0000e+00
       -6  2    1    2    0  502 +1.9419093272e+02 -4.4790865338e+01 -3.9751577959e+02 4.7707182695e+02 1.7280738724e+02 0.0000e+00 0.0000e+00
      -24  2    5    5    0    0 +7.7218951853e+01 +3.2892443053e+01 -2.3677751133e+02 2.6358641388e+02 7.9809325138e+01 0.0000e+00 0.0000e+00
        5  1    3    3  501    0 -6.8620617522e+01 +1.3108437792e+01 +4.2036073061e+01 8.1668486755e+01 4.7000000000e+00 0.0000e+00 -1.0000e+00
      -13  1    4    4    0    0 -9.5754542805e+01 -1.3103390877e+01 -6.0134013952e+01 1.1382763704e+02 0.0000000000e+00 0.0000e+00 1.0000e+00
       14  1    4    4    0    0 -2.9815772393e+01 +4.4785818424e+01 -5.8251791494e+01 7.9297042994e+01 0.0000000000e+00 0.0000e+00 -1.0000e+00
       -5  1    5    5    0  502 +1.1697198087e+02 -7.7683308391e+01 -1.6073826826e+02 2.1348541307e+02 4.7000000000e+00 0.0000e+00 1.0000e+00
       13  1    6    6    0    0 +7.8697033856e+01 +5.3375674514e+01 -1.8865210837e+02 2.1126240499e+02 0.0000000000e+00 0.0000e+00 -1.0000e+00
      -14  1    6    6    0    0 -1.4780820038e+00 -2.0483231461e+01 -4.8125402952e+01 5.2324008894e+01 0.0000000000e+00 0.0000e+00 1.0000e+00
<mgrwt>
<rscale>  2 0.26392456E+03</rscale>
<asrwt>0</asrwt>
<pdfrwt beam="1">  1       21 0.21384576E-01 0.26397349E+03</pdfrwt>
<pdfrwt beam="2">  1       21 0.94286959E-01 0.26397349E+03</pdfrwt>
<totfact> 0.18456328E+04</totfact>
</mgrwt>
</event>
<event>
14      3 +1.4674046e+01 2.68541200e+02 7.54677100e-03 1.10231300e-01
       21 -1    0    0  501  502 +0.0000000000e+00 +0.0000000000e+00 +4.1127572089e+02 4.1127572089e+02 0.0000000000e+00 0.0000e+00 -1.0000e+00
       21 -1    0    0  504  503 -0.0000000000e+00 -0.0000000000e+00 -2.6629439626e+02 2.6629439626e+02 0.0000000000e+00 0.0000e+00 1.0000e+00
       -6  2    1    2    0  503 +1.0293701114e+02 -1.7041428108e+02 +1.1743707436e+02 2.8670968884e+02 1.6962878229e+02 0.0000e+00 0.0000e+00
      -24  2    3    3    0    0 +3.8212681318e+01 -4.9306928410e+01 -1.0107696374e+00 1.0279058412e+02 8.1691494819e+01 0.0000e+00 0.0000e+00
        6  2    1    2  501    0 -6.8087488224e+01 +2.0065526857e+02 -7.1173735156e+01 2.8189140877e+02 1.7175163146e+02 0.0000e+00 0.0000e+00
       24  2    5    5    0    0 -3.9040980076e+01 +3.0548155294e+01 -5.5957258624e+01 1.0858889645e+02 7.8758781869e+01 0.0000e+00 0.0000e+00
        5  1    5    5  501    0 -2.9046508147e+01 +1.7010711327e+02 -1.5216476532e+01 1.7330251233e+02 4.7000000000e+00 0.0000e+00 -1.0000e+00
      -13  1    6    6    0    0 -1.1906805304e+01 +4.6257764256e+01 -6.0310468936e+01 7.6934422918e+01 0.0000000000e+00 0.0000e+00 1.0000e+00
       14  1    6    6    0    0 -2.7134174772e+01 -1.5709608962e+01 +4.3532103119e+00 3.1654473528e+01 0.0000000000e+00 0.0000e+00 -1.0000e+00
       -5  1    3    3    0  505 +4.8118454858e+01 -7.4036946694e+01 +9.1297305732e+01 1.2709895046e+02 4.7000000000e+00 0.0000e+00 1.0000e+00
       13  1    4    4    0    0 +3.6121294935e+01 -3.5937624714e+01 +3.6654729621e+01 6.2768065300e+01 0.0000000000e+00 0.0000e+00 -1.0000e+00
      -14  1    4    4    0    0 +2.0913863828e+00 -1.3369303696e+01 -3.7665499259e+01 4.0022518821e+01 0.0000000000e+00 0.0000e+00 1.0000e+00
       21  1    1    2  504  502 -3.4849522915e+01 -3.0240987481e+01 +9.8717985427e+01 1.0896901953e+02 0.0000000000e+00 0.0000e+00 -1.0000e+00
       21  1    3    3  505  503 +1.6605874963e+01 -4.7070405981e+01 +2.7150538263e+01 5.6820154263e+01 0.0000000000e+00 0.0000e+00 1.0000e+00
<mgrwt>
<rscale>  4 0.26820238E+03</rscale>
<asrwt>0</asrwt>
<pdfrwt beam="1">  1       21 0.63273188E-01 0.26854121E+03</pdfrwt>
<pdfrwt beam="2">  1       21 0.40968369E-01 0.26854121E+03</pdfrwt>
<totfact> 0.12695830E+04</totfact>
</mgrwt>
</event>
<event>
13      2 +1.4674046e+01 2.34926700e+02 7.54677100e-03 1.12329600e-01
       21 -1    0    0  501  502 +0.0000000000e+00 +0.0000000000e+00 +4.3502268144e+02 4.3502268144e+02 0.0000000000e+00 0.0000e+00 1.0000e+00
       21 -1    0    0  502  503 -0.0000000000e+00 -0.0000000000e+00 -1.8631851221e+02 1.8631851221e+02 0.0000000000e+00 0.0000e+00 -1.0000e+00
        6  2    1    2  501    0 +1.3198663357e+02 -8.8523212316e+01 +3.0027870223e+02 3.8125825484e+02 1.7301366221e+02 0.0000e+00 0.0000e+00
       24  2    3    3    0    0 +2.2033644609e+01 -3.6697949050e+01 +5.3424326738e+01 1.0605889003e+02 8.1006842348e+01 0.0000e+00 0.0000e+00
       -6  2    1    2    0  503 -1.3198663357e+02 +8.8523212316e+01 -5.1574533006e+01 2.4008293881e+02 1.7240375428e+02 0.0000e+00 0.0000e+00
      -24  2    5    5    0    0 -1.1137938282e+02 +1.0158040790e+02 -7.6454503567e+01 1.8703743685e+02 8.0085988035e+01 0.0000e+00 0.0000e+00
        5  1    3    3  501    0 +1.0995298896e+02 -5.1825263266e+01 +2.4685437549e+02 2.7519936481e+02 4.7000000000e+00 0.0000e+00 -1.0000e+00
      -13  1    4    4    0    0 +4.8254962736e+01 -4.1224828117e+00 +3.7730829524e+01 6.1393418131e+01 0.0000000000e+00 0.0000e+00 1.0000e+00
       14  1    4    4    0    0 -2.6221318127e+01 -3.2575466239e+01 +1.5693497215e+01 4.4665471897e+01 0.0000000000e+00 0.0000e+00 -1.0000e+00
       -5  1    5    5    0  504 -1.2000119856e+00 -2.1686044383e+01 +2.2582479785e+01 3.1682533721e+01 4.7000000000e+00 0.0000e+00 1.0000e+00
       13  1    6    6    0    0 -3.8978174157e+01 +8.8909830643e+01 -4.0066717366e+01 1.0502189241e+02 0.0000000000e+00 0.0000e+00 -1.0000e+00
      -14  1    6    6    0    0 -7.2401208664e+01 +1.2670577258e+01 -3.6387786200e+01 8.2015544433e+01 0.0000000000e+00 0.0000e+00 1.0000e+00
       21  1    5    5  504  503 -1.9407238767e+01 +8.6288487983e+00 +2.2974907763e+00 2.1362968239e+01 0.0000000000e+00 0.0000e+00 -1.0000e+00
<mgrwt>
<rscale>  3 0.23481442E+03</rscale>
<asrwt>0</asrwt>
<pdfrwt beam="1">  1       21 0.66926566E-01 0.23492671E+03</pdfrwt>
<pdfrwt beam="2">  1       21 0.28664387E-01 0.23492671E+03</pdfrwt>
<totfact> 0.23261063E+04</totfact>
</mgrwt>
</event>
<event>
13      2 +1.4674046e+01 2.38086700e+02 7.54677100e-03 1.12124700e-01
       21 -1    0    0  504  502 +0.0000000000e+00 +0.0000000000e+00 +4.6570996526e+02 4.6570996526e+02 0.0000000000e+00 0.0000e+00 1.0000e+00
       21 -1    0    0  501  503 -0.0000000000e+00 -0.0000000000e+00 -4.2701301800e+02 4.2701301800e+02 0.0000000000e+00 0.0000e+00 1.0000e+00
        6  2    1    2  501    0 +1.5917569671e+02 +1.0856362818e+02 +2.7987028309e+02 3.7994445680e+02 1.7002191361e+02 0.0000e+00 0.0000e+00
       24  2    3    3    0    0 +1.3303465192e+02 +2.5989612562e+01 +1.2049013659e+02 1.9848938419e+02 8.0662779818e+01 0.0000e+00 0.0000e+00
       -6  2    1    2    0  502 -8.5316691126e+01 -8.5199297766e+01 +4.6636175506e+01 2.1472591457e+02 1.7144803118e+02 0.0000e+00 0.0000e+00
      -24  2    5    5    0    0 -1.2333564940e+01 +1.3676477221e+01 +2.3522241287e+00 8.4012051733e+01 8.1934907242e+01 0.0000e+00 0.0000e+00
        5  1    3    3  501    0 +2.6141044791e+01 +8.2574015617e+01 +1.5938014650e+02 1.8145507261e+02 4.7000000000e+00 0.0000e+00 -1.0000e+00
      -13  1    4    4    0    0 +2.4399125282e+01 -2.0818857820e+01 +5.3960229774e+01 6.2772992223e+01 0.0000000000e+00 0.0000e+00 1.0000e+00
       14  1    4    4    0    0 +1.0863552664e+02 +4.6808470383e+01 +6.6529906818e+01 1.3571639197e+02 0.0000000000e+00 0.0000e+00 -1.0000e+00
       -5  1    5    5    0  502 -7.2983126186e+01 -9.8875774986e+01 +4.4283951377e+01 1.3071386283e+02 4.7000000000e+00 0.0000e+00 1.0000e+00
       13  1    6    6    0    0 -3.1624374006e+01 -6.1847268625e+00 -2.8171437878e+01 4.2801656390e+01 0.0000000000e+00 0.0000e+00 -1.0000e+00
      -14  1    6    6    0    0 +1.9290809066e+01 +1.9861204083e+01 +3.0523662006e+01 4.1210395343e+01 0.0000000000e+00 0.0000e+00 1.0000e+00
       21  1    1    2  504  503 -7.3859005584e+01 -2.3364330413e+01 -2.8780951133e+02 2.9805261189e+02 0.0000000000e+00 0.0000e+00 1.0000e+00
<mgrwt>
<rscale>  3 0.23783004E+03</rscale>
<asrwt>0</asrwt>
<pdfrwt beam="1">  1       21 0.71647687E-01 0.23808668E+03</pdfrwt>
<pdfrwt beam="2">  1       21 0.65694311E-01 0.23808668E+03</pdfrwt>
<totfact> 0.36208972E+03</totfact>
</mgrwt>
</event>
<event>
12      1 +1.4674046e+01 1.94240500e+02 7.54677100e-03 1.15469100e-01
        1 -1    0    0  502    0 +0.0000000000e+00 +0.0000000000e+00 +1.6804408249e+02 1.6804408249e+02 0.0000000000e+00 0.0000e+00 1.0000e+00
       -1 -1    0    0    0  501 -0.0000000000e+00 -0.0000000000e+00 -2.2452560443e+02 2.2452560443e+02 0.0000000000e+00 0.0000e+00 -1.0000e+00
        6  2    1    2  502    0 -4.1396522494e+00 -8.8208240834e+01 -2.7500907425e+01 1.9552588146e+02 1.7226793068e+02 0.0000e+00 0.0000e+00
       24  2    3    3    0    0 +1.5496588754e+01 +1.6731167377e+01 -3.4326118810e+00 8.5984865366e+01 8.2834401205e+01 0.0000e+00 0.0000e+00
       -6  2    1    2    0  501 +4.1396522494e+00 +8.8208240834e+01 -2.8980614511e+01 1.9704380546e+02 1.7374853893e+02 0.0000e+00 0.0000e+00
      -24  2    5    5    0    0 -4.2355109716e+01 +2.0275075751e+01 +2.9206328521e+01 9.6125580403e+01 7.8626226962e+01 0.0000e+00 0.0000e+00
        5  1    3    3  502    0 -1.9636241004e+01 -1.0493940821e+02 -2.4068295544e+01 1.0954101609e+02 4.7000000000e+00 0.0000e+00 -1.0000e+00
      -13  1    4    4    0    0 +2.0823273719e+01 -1.7350231294e+00 +3.6279412142e+01 4.1866630853e+01 0.0000000000e+00 0.0000e+00 1.0000e+00
       14  1    4    4    0    0 -5.3266849646e+00 +1.8466190507e+01 -3.9712024023e+01 4.4118234513e+01 0.0000000000e+00 0.0000e+00 -1.0000e+00
       -5  1    5    5    0  501 +4.6494761966e+01 +6.7933165082e+01 -5.8186943031e+01 1.0091822505e+02 4.7000000000e+00 0.0000e+00 1.0000e+00
       13  1    6    6    0    0 -3.2362317547e+01 +4.0717186816e+01 -7.8902610532e+00 5.2606702222e+01 0.0000000000e+00 0.0000e+00 -1.0000e+00
      -14  1    6    6    0    0 -9.9927921690e+00 -2.0442111064e+01 +3.7096589574e+01 4.3518878181e+01 0.0000000000e+00 0.0000e+00 1.0000e+00
<mgrwt>
<rscale>  2 0.19424047E+03</rscale>
<asrwt>0</asrwt>
<pdfrwt beam="1">  1        1 0.25852936E-01 0.19424047E+03</pdfrwt>
<pdfrwt beam="2">  1       -1 0.34542401E-01 0.19424047E+03</pdfrwt>
<totfact> 0.14544127E+03</totfact>
</mgrwt>
</event>
<event>
13      3 +1.4674046e+01 2.33889000e+02 7.54677100e-03 1.13561000e-01
       21 -1    0    0  505  502 +0.0000000000e+00 +0.0000000000e+00 +1.2692394930e+03 1.2692394930e+03 0.0000000000e+00 0.0000e+00 -1.0000e+00
       21 -1    0    0  504  503 -0.0000000000e+00 -0.0000000000e+00 -5.2662967364e+01 5.2662967364e+01 0.0000000000e+00 0.0000e+00 -1.0000e+00
      -24  2    1    2    0    0 +2.6181372041e+01 -8.4632771476e+00 +3.8824218496e+01 9.6072290548e+01 8.3459413893e+01 0.0000e+00 0.0000e+00
        6  2    1    2  505    0 +4.9902854698e+01 -1.2217542907e+01 +4.3651325470e+02 4.7235605773e+02 1.7302271666e+02 0.0000e+00 0.0000e+00
       24  2    4    4    0    0 +8.5049720006e+01 +1.5062248558e+01 +3.2997118284e+02 3.4881972595e+02 7.3033509437e+01 0.0000e+00 0.0000e+00
        5  1    4    4  501    0 -3.3329253938e+01 -5.2312205999e+00 +8.9020294563e+01 9.5314782070e+01 4.7000000000e+00 0.0000e+00 -1.0000e+00
      -13  1    5    5    0    0 +7.3002878226e+01 +1.0533560693e+01 +1.3849554592e+02 1.5691205298e+02 0.0000000000e+00 0.0000e+00 1.0000e+00
       14  1    5    5    0    0 +1.2046841780e+01 +4.5286878649e+00 +1.9147563692e+02 1.9190767297e+02 0.0000000000e+00 0.0000e+00 -1.0000e+00
       -5  1    1    2    0  503 -1.7804095859e+00 +4.9737693269e+01 +3.9561937630e+02 3.9876533060e+02 4.7000000000e+00 0.0000e+00 1.0000e+00
       13  1    3    3    0    0 -1.2927221850e+01 +2.9686901654e+01 +2.1045934456e+01 3.8618085810e+01 0.0000000000e+00 0.0000e+00 -1.0000e+00
      -14  1    3    3    0    0 +3.9108593890e+01 -3.8150178801e+01 +1.7778284040e+01 5.7454204738e+01 0.0000000000e+00 0.0000e+00 1.0000e+00
       21  1    1    2  504  502 -7.4303817152e+01 -2.9056873214e+01 +3.4561967611e+02 3.5470878145e+02 0.0000000000e+00 0.0000e+00 -1.0000e+00
       21  1    4    4  505  501 -1.8176113700e+00 -2.2048570866e+01 +1.7521777292e+01 2.8221549706e+01 0.0000000000e+00 0.0000e+00 -1.0000e+00
<mgrwt>
<rscale>  4 0.21769876E+03</rscale>
<asrwt>0</asrwt>
<pdfrwt beam="1">  1       21 0.19526759E+00 0.23388901E+03</pdfrwt>
<pdfrwt beam="2">  1       21 0.81019960E-02 0.23388901E+03</pdfrwt>
<totfact> 0.16411721E+04</totfact>
</mgrwt>
</event>
<event>
12      1 +1.4674046e+01 1.99966200e+02 7.54677100e-03 1.14992800e-01
       21 -1    0    0  503  502 +0.0000000000e+00 +0.0000000000e+00 +2.4961126727e+02 2.4961126727e+02 0.0000000000e+00 0.0000e+00 -1.0000e+00
       21 -1    0    0  501  503 -0.0000000000e+00 -0.0000000000e+00 -1.6707574804e+02 1.6707574804e+02 0.0000000000e+00 0.0000e+00 -1.0000e+00
        6  2    1    2  501    0 +5.6827276435e+01 +7.8890581984e+01 -2.9146939024e+00 1.9922850693e+02 1.7386902904e+02 0.0000e+00 0.0000e+00
       24  2    3    3    0    0 +3.0470832952e+01 -2.6209151759e+01 -1.1887814491e+01 9.0401933708e+01 8.0098677817e+01 0.0000e+00 0.0000e+00
       -6  2    1    2    0  502 -5.6827276435e+01 -7.8890581984e+01 +8.5450213131e+01 2.1745850839e+02 1.7473809165e+02 0.0000e+00 0.0000e+00
      -24  2    5    5    0    0 -1.8003702575e+01 -2.6327927931e+01 +1.1626126511e+02 1.4506021136e+02 8.0675213420e+01 0.0000e+00 0.0000e+00
        5  1    3    3  501    0 +2.6356443483e+01 +1.0509973374e+02 +8.9731205890e+00 1.0882657322e+02 4.7000000000e+00 0.0000e+00 -1.0000e+00
      -13  1    4    4    0    0 +1.4180374633e+01 +7.2102006650e+00 +3.0267998797e+01 3.4193884972e+01 0.0000000000e+00 0.0000e+00 1.0000e+00
       14  1    4    4    0    0 +1.6290458319e+01 -3.3419352424e+01 -4.2155813288e+01 5.6208048736e+01 0.0000000000e+00 0.0000e+00 -1.0000e+00
       -5  1    5    5    0  502 -3.8823573859e+01 -5.2562654052e+01 -3.0811051978e+01 7.2398297026e+01 4.7000000000e+00 0.0000e+00 1.0000e+00
       13  1    6    6    0    0 -2.1085434304e+01 -5.2802094429e+01 +5.9199578836e+01 8.2080733733e+01 0.0000000000e+00 0.0000e+00 -1.0000e+00
      -14  1    6    6    0    0 +3.0817317289e+00 +2.6474166498e+01 +5.7061686274e+01 6.2979477630e+01 0.0000000000e+00 0.0000e+00 1.0000e+00
<mgrwt>
<rscale>  2 0.19977614E+03</rscale>
<asrwt>0</asrwt>
<pdfrwt beam="1">  1       21 0.38401733E-01 0.19996616E+03</pdfrwt>
<pdfrwt beam="2">  1       21 0.25703961E-01 0.19996616E+03</pdfrwt>
<totfact> 0.93643632E+04</totfact>
</mgrwt>
</event>
<event>
14      3 +1.4674046e+01 2.62997800e+02 7.54677100e-03 1.10553300e-01
       21 -1    0    0  505  502 +0.0000000000e+00 +0.0000000000e+00 +7.6893775400e+01 7.6893775400e+01 0.0000000000e+00 0.0000e+00 -1.0000e+00
       21 -1    0    0  501  503 -0.0000000000e+00 -0.0000000000e+00 -1.2284806089e+03 1.2284806089e+03 0.0000000000e+00 0.0000e+00 -1.0000e+00
        6  2    1    2  501    0 -6.0256141366e+01 +2.0099650761e+02 -3.2909478407e+02 4.2624857390e+02 1.7133029855e+02 0.0000e+00 0.0000e+00
       24  2    3    3    0    0 -7.5460172098e+01 +7.6607344894e+01 -2.2917659604e+02 2.6590656240e+02 8.1372384077e+01 0.0000e+00 0.0000e+00
       -6  2    1    2    0  502 +7.2033930599e+01 -1.6557920521e+02 -5.5168537096e+02 6.0575909931e+02 1.7315304651e+02 0.0000e+00 0.0000e+00
      -24  2    5    5    0    0 +4.0500755717e+01 -1.0901034943e+02 -4.8201871726e+02 5.0293956450e+02 8.4158150305e+01 0.0000e+00 0.0000e+00
        5  1    3    3  501    0 +1.5204030732e+01 +1.2438916272e+02 -9.9918188037e+01 1.6034201150e+02 4.7000000000e+00 0.0000e+00 -1.0000e+00
      -13  1    4    4    0    0 -2.0446448002e+01 -1.2199722578e+01 -8.2252942153e+01 8.5629650003e+01 0.0000000000e+00 0.0000e+00 1.0000e+00
       14  1    4    4    0    0 -5.5013724096e+01 +8.8807067472e+01 -1.4692365388e+02 1.8027691240e+02 0.0000000000e+00 0.0000e+00 -1.0000e+00
       -5  1    5    5    0  504 +2.6713929504e+01 -2.0012475013e+01 -1.5035239714e+01 3.6909099406e+01 4.7000000000e+00 0.0000e+00 1.0000e+00
       13  1    6    6    0    0 -2.5210126712e+01 -3.4948449725e+01 -1.8085838230e+02 1.8592121739e+02 0.0000000000e+00 0.0000e+00 -1.0000e+00
      -14  1    6    6    0    0 +6.5710882429e+01 -7.4061899707e+01 -3.0116033495e+02 3.1701834711e+02 0.0000000000e+00 0.0000e+00 1.0000e+00
       21  1    5    5  504  502 +4.8192453781e+00 -3.6556380764e+01 -5.4631413987e+01 6.5910435401e+01 0.0000000000e+00 0.0000e+00 1.0000e+00
       21  1    1    2  505  503 -1.1777789233e+01 -3.5417302401e+01 -2.7080667849e+02 2.7336671111e+02 0.0000000000e+00 0.0000e+00 -1.0000e+00
<mgrwt>
<rscale>  4 0.26269817E+03</rscale>
<asrwt>0</asrwt>
<pdfrwt beam="1">  1       21 0.11829812E-01 0.26299780E+03</pdfrwt>
<pdfrwt beam="2">  1       21 0.18899701E+00 0.26299780E+03</pdfrwt>
<totfact> 0.90576373E+03</totfact>
</mgrwt>
</event>
<event>
13      2 +1.4674046e+01 2.01037500e+02 7.54677100e-03 1.14899900e-01
       21 -1    0    0  503  502 +0.0000000000e+00 +0.0000000000e+00 +6.6855599850e+02 6.6855599850e+02 0.0000000000e+00 0.0000e+00 -1.0000e+00
       21 -1    0    0  504  503 -0.0000000000e+00 -0.0000000000e+00 -1.2837911113e+02 1.2837911113e+02 0.0000000000e+00 0.0000e+00 -1.0000e+00
        6  2    1    2  501    0 +7.5583858552e+01 +8.5675799553e+01 +8.8361576100e+01 2.2636478180e+02 1.7429854849e+02 0.0000e+00 0.0000e+00
       24  2    3    3    0    0 -1.9966755894e+01 +9.9268274878e+00 +5.5530069629e+01 1.0000092420e+02 8.0121051931e+01 0.0000e+00 0.0000e+00
       -6  2    1    2    0  502 -7.9030522830e+01 -5.5975929736e+01 +4.8604858438e+02 5.2511838893e+02 1.7357121812e+02 0.0000e+00 0.0000e+00
      -24  2    5    5    0    0 -5.0897433065e+01 +3.0213137220e+01 +1.7614303896e+02 2.0218873237e+02 7.9690218777e+01 0.0000e+00 0.0000e+00
        5  1    3    3  501    0 +9.5550614446e+01 +7.5748972066e+01 +3.2831506471e+01 1.2636385760e+02 4.7000000000e+00 0.0000e+00 -1.0000e+00
      -13  1    4    4    0    0 -3.9574318669e+01 +2.2495220175e+01 +6.8461688114e+00 4.6032940990e+01 0.0000000000e+00 0.0000e+00 1.0000e+00
       14  1    4    4    0    0 +1.9607562775e+01 -1.2568392687e+01 +4.8683900817e+01 5.3967983208e+01 0.0000000000e+00 0.0000e+00 -1.0000e+00
       -5  1    5    5    0  502 -2.8133089765e+01 -8.6189066956e+01 +3.0990554542e+02 3.2292965656e+02 4.7000000000e+00 0.0000e+00 1.0000e+00
       13  1    6    6    0    0 -5.8139918427e+01 -5.9712148103e+00 +7.8975591921e+01 9.8249934556e+01 0.0000000000e+00 0.0000e+00 -1.0000e+00
      -14  1    6    6    0    0 +7.2424853629e+00 +3.6184352031e+01 +9.7167447042e+01 1.0393879781e+02 0.0000000000e+00 0.0000e+00 1.0000e+00
       21  1    1    2  504  501 +3.4466642775e+00 -2.9699869818e+01 -3.4233273117e+01 4.5451938904e+01 0.0000000000e+00 0.0000e+00 -1.0000e+00
<mgrwt>
<rscale>  3 0.20087970E+03</rscale>
<asrwt>0</asrwt>
<pdfrwt beam="1">  1       21 0.10285477E+00 0.20103745E+03</pdfrwt>
<pdfrwt beam="2">  1       21 0.19750633E-01 0.20103745E+03</pdfrwt>
<totfact> 0.18043321E+04</totfact>
</mgrwt>
</event>
<event>
13      2 +1.4674046e+01 1.86919500e+02 7.54677100e-03 1.16147400e-01
       21 -1    0    0  501  502 +0.0000000000e+00 +0.0000000000e+00 +1.2904122383e+02 1.2904122383e+02 0.0000000000e+00 0.0000e+00 -1.0000e+00
       21 -1    0    0  502  503 -0.0000000000e+00 -0.0000000000e+00 -3.7613128336e+02 3.7613128336e+02 0.0000000000e+00 0.0000e+00 -1.0000e+00
       -6  2    1    2    0  504 +3.0184576202e+01 -6.6724551605e+01 -1.8693318660e+02 2.6601617083e+02 1.7452023511e+02 0.0000e+00 0.0000e+00
      -24  2    3    3    0    0 -2.5606810640e+01 -7.6663061502e+01 -6.5119738469e+01 1.3158381248e+02 8.0875123613e+01 0.0000e+00 0.0000e+00
        6  2    1    2  501    0 -4.3060500150e+01 +4.8889815973e+01 -1.1492722250e+01 1.8575159150e+02 1.7357174396e+02 0.0000e+00 0.0000e+00
       24  2    5    5    0    0 +3.2824975590e+01 +6.4080685400e+01 -7.0480835239e+00 1.0809070846e+02 8.0312592475e+01 0.0000e+00 0.0000e+00
        5  1    5    5  501    0 -7.5885475739e+01 -1.5190869426e+01 -4.4446387263e+00 7.7660883046e+01 4.7000000000e+00 0.0000e+00 -1.0000e+00
      -13  1    6    6    0    0 +4.9951813022e+01 +3.1018111797e+01 +1.9957199744e+01 6.2093451388e+01 0.0000000000e+00 0.0000e+00 1.0000e+00
       14  1    6    6    0    0 -1.7126837432e+01 +3.3062573603e+01 -2.7005283268e+01 4.5997257071e+01 0.0000000000e+00 0.0000e+00 -1.0000e+00
       -5  1    3    3    0  504 +5.5791386841e+01 +9.9385098971e+00 -1.2181344813e+02 1.3443235835e+02 4.7000000000e+00 0.0000e+00 1.0000e+00
       13  1    4    4    0    0 +2.8666294323e+01 -3.2852968075e+01 -3.3589724291e+01 5.5039472377e+01 0.0000000000e+00 0.0000e+00 -1.0000e+00
      -14  1    4    4    0    0 -5.4273104962e+01 -4.3810093427e+01 -3.1530014178e+01 7.6544340107e+01 0.0000000000e+00 0.0000e+00 1.0000e+00
       21  1    1    2  504  503 +1.2875923948e+01 +1.7834735632e+01 -4.8664150677e+01 5.3404744861e+01 0.0000000000e+00 0.0000e+00 -1.0000e+00
<mgrwt>
<rscale>  3 0.18669778E+03</rscale>
<asrwt>0</asrwt>
<pdfrwt beam="1">  1       21 0.19852496E-01 0.18691949E+03</pdfrwt>
<pdfrwt beam="2">  1       21 0.57866350E-01 0.18691949E+03</pdfrwt>
<totfact> 0.65697215E+04</totfact>
</mgrwt>
</event>
<event>
14      3 +1.4674046e+01 1.93978800e+02 7.54677100e-03 1.15539900e-01
       21 -1    0    0  504  503 +0.0000000000e+00 +0.0000000000e+00 +1.1575199131e+02 1.1575199131e+02 0.0000000000e+00 0.0000e+00 1.0000e+00
        2 -1    0    0  501    0 -0.0000000000e+00 -0.0000000000e+00 -8.7932923869e+02 8.7932923869e+02 0.0000000000e+00 0.0000e+00 1.0000e+00
        6  2    1    2  501    0 -9.2087441828e+01 -8.1437896211e+01 -2.0637861517e+02 2.9762603419e+02 1.7571822770e+02 0.0000e+00 0.0000e+00
       24  2    3    3    0    0 -1.2407136643e+02 -2.8866492784e+01 -1.2591486700e+02 1.9621977865e+02 8.0129079812e+01 0.0000e+00 0.0000e+00
       -6  2    1    2    0  503 +7.6507383296e+01 -1.8545613094e+01 -1.4796075006e+02 2.4110380440e+02 1.7332438223e+02 0.0000e+00 0.0000e+00
      -24  2    5    5    0    0 +1.1054317689e+02 -9.7410091206e+00 -6.6438618641e+01 1.5219990006e+02 8.0224923275e+01 0.0000e+00 0.0000e+00
        5  1    3    3  501    0 +3.1983924599e+01 -5.2571403427e+01 -8.0463748174e+01 1.0140625553e+02 4.7000000000e+00 0.0000e+00 -1.0000e+00
      -13  1    4    4    0    0 -9.9953388994e+01 +9.9143188005e+00 -1.0708867323e+02 1.4682287840e+02 0.0000000000e+00 0.0000e+00 1.0000e+00
       14  1    4    4    0    0 -2.4117977434e+01 -3.8780811584e+01 -1.8826193767e+01 4.9396900250e+01 0.0000000000e+00 0.0000e+00 -1.0000e+00
       -5  1    5    5    0  503 -3.4035793596e+01 -8.8046039730e+00 -8.1522131415e+01 8.8903904342e+01 4.7000000000e+00 0.0000e+00 1.0000e+00
       13  1    6    6    0    0 +9.0307627543e+00 +2.6834927204e+01 -7.6765036312e+00 2.9335928518e+01 0.0000000000e+00 0.0000e+00 -1.0000e+00
      -14  1    6    6    0    0 +1.0151241414e+02 -3.6575936325e+01 -5.8762115010e+01 1.2286397154e+02 0.0000000000e+00 0.0000e+00 1.0000e+00
       21  1    1    2  504  502 -4.9864525107e+01 +1.5472749851e+01 -2.5690046658e+01 5.8188103160e+01 0.0000000000e+00 0.0000e+00 1.0000e+00
        2  1    1    2  502    0 +6.5444583639e+01 +8.4510759453e+01 -3.8354783550e+02 3.9816328825e+02 0.0000000000e+00 0.0000e+00 1.0000e+00
<mgrwt>
<rscale>  4 0.19343504E+03</rscale>
<asrwt>0</asrwt>
<pdfrwt beam="1">  1       21 0.17807999E-01 0.19397878E+03</pdfrwt>
<pdfrwt beam="2">  1        2 0.13528142E+00 0.19397878E+03</pdfrwt>
<totfact> 0.11375211E+04</totfact>
</mgrwt>
</event>
<event>
11      1 +1.4674046e+01 1.83618400e+02 7.54677100e-03 1.16472800e-01
       21 -1    0    0  503  502 +0.0000000000e+00 +0.0000000000e+00 +3.4274090329e+02 3.4274090329e+02 0.0000000000e+00 0.0000e+00 -1.0000e+00
       21 -1    0    0  501  503 -0.0000000000e+00 -0.0000000000e+00 -1.0282419603e+02 1.0282419603e+02 0.0000000000e+00 0.0000e+00 -1.0000e+00
        6  2    1    2  501    0 +2.3370518848e+01 +5.5178063884e+01 +6.9813521573e+01 1.9644242579e+02 1.7356525854e+02 0.0000e+00 0.0000e+00
       -6  2    1    2    0  502 -2.3370518848e+01 -5.5178063884e+01 +1.7010318568e+02 2.4912267353e+02 1.7186102759e+02 0.0000e+00 0.0000e+00
      -24  2    4    4    0    0 -5.9842258228e+01 -7.0636031188e+00 +5.0056505138e+01 1.1466641813e+02 8.3736153365e+01 0.0000e+00 0.0000e+00
        5  1    3    3  501    0 +7.7976955997e+01 +4.6520476499e+01 -7.6288469874e+00 9.1240614348e+01 4.7000000000e+00 0.0000e+00 -1.0000e+00
      -13  1    3    3    0    0 -4.7039112789e+01 -1.2551822502e+01 +5.3168740666e+01 7.2091201711e+01 0.0000000000e+00 0.0000e+00 1.0000e+00
       14  1    3    3    0    0 -7.5673243602e+00 +2.1209409887e+01 +2.4273627893e+01 3.3110609732e+01 0.0000000000e+00 0.0000e+00 -1.0000e+00
       -5  1    4    4    0  502 +3.6471739380e+01 -4.8114460765e+01 +1.2004668055e+02 1.3445625541e+02 4.7000000000e+00 0.0000e+00 1.0000e+00
       13  1    5    5    0    0 -2.6607412719e+00 +3.3119990538e+01 +1.4501418640e+01 3.6253337224e+01 0.0000000000e+00 0.0000e+00 -1.0000e+00
      -14  1    5    5    0    0 -5.7181516956e+01 -4.0183593656e+01 +3.5555086498e+01 7.8413080901e+01 0.0000000000e+00 0.0000e+00 1.0000e+00
<mgrwt>
<rscale>  2 0.18321450E+03</rscale>
<asrwt>0</asrwt>
<pdfrwt beam="1">  1       21 0.52729369E-01 0.18361835E+03</pdfrwt>
<pdfrwt beam="2">  1       21 0.15819107E-01 0.18361835E+03</pdfrwt>
<totfact> 0.12175815E+05</totfact>
</mgrwt>
</event>
<event>
12      1 +1.4674046e+01 2.25305200e+02 7.54677100e-03 1.13008400e-01
       21 -1    0    0  503  502 +0.0000000000e+00 +0.0000000000e+00 +1.9050266524e+02 1.9050266524e+02 0.0000000000e+00 0.0000e+00 1.0000e+00
       21 -1    0    0  501  503 -0.0000000000e+00 -0.0000000000e+00 -2.7124474852e+02 2.7124474852e+02 0.0000000000e+00 0.0000e+00 1.0000e+00
        6  2    1    2  501    0 -6.2899181511e+01 +1.2953441556e+02 -7.2994535830e+01 2.3683464494e+02 1.7328293319e+02 0.0000e+00 0.0000e+00
       24  2    3    3    0    0 -3.7542688204e+01 +1.6156741359e+02 -5.8252152415e+01 1.9314834750e+02 7.9996801868e+01 0.0000e+00 0.0000e+00
       -6  2    1    2    0  502 +6.2899181511e+01 -1.2953441556e+02 -7.7475474488e+00 2.2491276882e+02 1.7259854356e+02 0.0000e+00 0.0000e+00
      -24  2    5    5    0    0 +7.0038448662e+01 -4.2836713127e+01 -5.4647133500e+01 1.2597277734e+02 7.8373867764e+01 0.0000e+00 0.0000e+00
        5  1    3    3  501    0 -2.5356493307e+01 -3.2032998030e+01 -1.4742383415e+01 4.3686297444e+01 4.7000000000e+00 0.0000e+00 -1.0000e+00
      -13  1    4    4    0    0 -2.6249449037e+01 +8.5800732808e+00 -2.2529654217e+01 3.5640378104e+01 0.0000000000e+00 0.0000e+00 1.0000e+00
       14  1    4    4    0    0 -1.1293239167e+01 +1.5298734031e+02 -3.5722498198e+01 1.5750796939e+02 0.0000000000e+00 0.0000e+00 -1.0000e+00
       -5  1    5    5    0  502 -7.1392671509e+00 -8.6697702430e+01 +4.6899586051e+01 9.8939991479e+01 4.7000000000e+00 0.0000e+00 1.0000e+00
       13  1    6    6    0    0 -1.2104803922e+01 +5.4127355288e-01 -2.6126908155e+01 2.8799905985e+01 0.0000000000e+00 0.0000e+00 -1.0000e+00
      -14  1    6    6    0    0 +8.2143252583e+01 -4.3377986680e+01 -2.8520225345e+01 9.7172871354e+01 0.0000000000e+00 0.0000e+00 1.0000e+00
<mgrwt>
<rscale>  2 0.22517363E+03</rscale>
<asrwt>0</asrwt>
<pdfrwt beam="1">  1       21 0.29308102E-01 0.22530523E+03</pdfrwt>
<pdfrwt beam="2">  1       21 0.41729962E-01 0.22530523E+03</pdfrwt>
<totfact> 0.60757321E+04</totfact>
</mgrwt>
</event>
<event>
14      3 +1.4674046e+01 2.43438900e+02 7.54677100e-03 1.11765900e-01
       21 -1    0    0  503  502 +0.0000000000e+00 +0.0000000000e+00 +4.6952480345e+02 4.6952480345e+02 0.0000000000e+00 0.0000e+00 1.0000e+00
       21 -1    0    0  501  503 -0.0000000000e+00 -0.0000000000e+00 -7.4181206715e+02 7.4181206715e+02 0.0000000000e+00 0.0000e+00 -1.0000e+00
        6  2    1    2  501    0 -1.1092873912e+02 -1.0017365888e+02 +8.3085835637e+01 2.4267004381e+02 1.7217882269e+02 0.0000e+00 0.0000e+00
       24  2    3    3    0    0 -2.9471816462e+01 -5.9233350205e+01 -1.7300446367e+01 1.0698351265e+02 8.2273864579e+01 0.0000e+00 0.0000e+00
       -6  2    1    2    0  505 +1.1121662325e+02 +1.3396574325e+02 -6.3818313370e+02 6.8384494669e+02 1.7335005428e+02 0.0000e+00 0.0000e+00
      -24  2    5    5    0    0 +6.9285547965e+01 +1.0782714184e+02 -5.9096193420e+02 6.1014210407e+02 8.1303135326e+01 0.0000e+00 0.0000e+00
        5  1    3    3  501    0 -8.1456922658e+01 -4.0940308671e+01 +1.0038628200e+02 1.3568653116e+02 4.7000000000e+00 0.0000e+00 -1.0000e+00
      -13  1    4    4    0    0 +1.2093830903e+01 +1.5579492858e+01 -2.8767199904e-01 1.9724707825e+01 0.0000000000e+00 0.0000e+00 1.0000e+00
       14  1    4    4    0    0 -4.1565647366e+01 -7.4812843063e+01 -1.7012774368e+01 8.7258804827e+01 0.0000000000e+00 0.0000e+00 -1.0000e+00
       -5  1    5    5    0  504 +2.1589690033e+01 -9.7639697156e-01 -2.3870040066e+01 3.2541310354e+01 4.7000000000e+00 0.0000e+00 1.0000e+00
       13  1    6    6    0    0 +5.5932722854e+01 +3.7907244826e+01 -1.6541827593e+02 1.7868585481e+02 0.0000000000e+00 0.0000e+00 -1.0000e+00
      -14  1    6    6    0    0 +1.3352825111e+01 +6.9919897010e+01 -4.2554365827e+02 4.3145624926e+02 0.0000000000e+00 0.0000e+00 1.0000e+00
       21  1    5    5  504  505 +2.0341385250e+01 +2.7114998387e+01 -2.3351159436e+01 4.1161532265e+01 0.0000000000e+00 0.0000e+00 1.0000e+00
       21  1    1    2  505  502 -2.8788412789e-01 -3.3792084374e+01 +2.8281003437e+02 2.8482188010e+02 0.0000000000e+00 0.0000e+00 1.0000e+00
<mgrwt>
<rscale>  4 0.24323048E+03</rscale>
<asrwt>0</asrwt>
<pdfrwt beam="1">  1       21 0.72234585E-01 0.24343890E+03</pdfrwt>
<pdfrwt beam="2">  1       21 0.11412493E+00 0.24343890E+03</pdfrwt>
<totfact> 0.98528200E+02</totfact>
</mgrwt>
</event>
<event>
12      1 +1.4674046e+01 2.35929200e+02 7.54677100e-03 1.12257900e-01
       21 -1    0    0  503  502 +0.0000000000e+00 +0.0000000000e+00 +1.5322190757e+03 1.5322190757e+03 0.0000000000e+00 0.0000e+00 -1.0000e+00
       21 -1    0    0  501  503 -0.0000000000e+00 -0.0000000000e+00 -4.3615966284e+01 4.3615966284e+01 0.0000000000e+00 0.0000e+00 1.0000e+00
        6  2    1    2  501    0 +1.3006492091e+02 +9.3759219146e+01 +1.0675919234e+03 1.0933504115e+03 1.7307493358e+02 0.0000e+00 0.0000e+00
       24  2    3    3    0    0 +5.6351314390e+01 +9.6746431430e+01 +8.9482605965e+02 9.0543353387e+02 8.0999164287e+01 0.0000e+00 0.0000e+00
       -6  2    1    2    0  502 -1.3006492091e+02 -9.3759219146e+01 +4.2101118609e+02 4.8248463054e+02 1.7272326151e+02 0.0000e+00 0.0000e+00
      -24  2    5    5    0    0 -3.9925273657e+01 -9.3918802033e+01 +3.2421545874e+02 3.5013401925e+02 8.4044029542e+01 0.0000e+00 0.0000e+00
        5  1    3    3  501    0 +7.3713606524e+01 -2.9872122847e+00 +1.7276586371e+02 1.8791687760e+02 4.7000000000e+00 0.0000e+00 -1.0000e+00
      -13  1    4    4    0    0 -1.8477766194e+01 +1.0810554901e+01 +8.6213955983e+01 8.8832100882e+01 0.0000000000e+00 0.0000e+00 1.0000e+00
       14  1    4    4    0    0 +7.4829080585e+01 +8.5935876529e+01 +8.0861210366e+02 8.1660143299e+02 0.0000000000e+00 0.0000e+00 -1.0000e+00
       -5  1    5    5    0  502 -9.0139647257e+01 +1.5958288754e-01 +9.6795727359e+01 1.3235061129e+02 4.7000000000e+00 0.0000e+00 1.0000e+00
       13  1    6    6    0    0 -4.0920403603e+01 -9.2586115630e+00 +1.5959164561e+02 1.6501422565e+02 0.0000000000e+00 0.0000e+00 -1.0000e+00
      -14  1    6    6    0    0 +9.9512994604e-01 -8.4660190470e+01 +1.6462381313e+02 1.8511979360e+02 0.0000000000e+00 0.0000e+00 1.0000e+00
<mgrwt>
<rscale>  2 0.23586475E+03</rscale>
<asrwt>0</asrwt>
<pdfrwt beam="1">  1       21 0.23572597E+00 0.23592924E+03</pdfrwt>
<pdfrwt beam="2">  1       21 0.67101499E-02 0.23592924E+03</pdfrwt>
<totfact> 0.12683768E+04</totfact>
</mgrwt>
</event>
<event>
12      1 +1.4674046e+01 1.94551600e+02 7.54677100e-03 1.15454400e-01
       21 -1    0    0  501  502 +0.0000000000e+00 +0.0000000000e+00 +1.0590133452e+03 1.0590133452e+03 0.0000000000e+00 0.0000e+00 -1.0000e+00
       21 -1    0    0  502  503 -0.0000000000e+00 -0.0000000000e+00 -5.1214786397e+01 5.1214786397e+01 0.0000000000e+00 0.0000e+00 1.0000e+00
       -6  2    1    2    0  503 -8.9162468078e+01 +1.3933885890e+00 +1.9722391022e+02 2.7663254388e+02 1.7226841361e+02 0.0000e+00 0.0000e+00
      -24  2    3    3    0    0 +1.2980340337e+01 +7.3798579011e+00 +1.3138249611e+02 1.5486977068e+02 8.0624649139e+01 0.0000e+00 0.0000e+00
        6  2    1    2  501    0 +8.9162468078e+01 -1.3933885890e+00 +8.1057464854e+02 8.3359558767e+02 1.7291169911e+02 0.0000e+00 0.0000e+00
       24  2    5    5    0    0 +1.6397112725e+01 +5.6249789525e+01 +3.9256514313e+02 4.0537652045e+02 8.2400410210e+01 0.0000e+00 0.0000e+00
        5  1    5    5  501    0 +7.2765355352e+01 -5.7643178114e+01 +4.1800950541e+02 4.2821906722e+02 4.7000000000e+00 0.0000e+00 -1.0000e+00
      -13  1    6    6    0    0 +4.6066184966e+01 +1.4755482898e+01 +1.5397166486e+02 1.6139111268e+02 0.0000000000e+00 0.0000e+00 1.0000e+00
       14  1    6    6    0    0 -2.9669072240e+01 +4.1494306626e+01 +2.3859347828e+02 2.4398540778e+02 0.0000000000e+00 0.0000e+00 -1.0000e+00
       -5  1    3    3    0  503 -1.0214280841e+02 -5.9864693121e+00 +6.5841414116e+01 1.2176277320e+02 4.7000000000e+00 0.0000e+00 1.0000e+00
       13  1    4    4    0    0 +3.0623174659e+01 -1.4952040141e+01 +1.1908710660e+02 1.2386719214e+02 0.0000000000e+00 0.0000e+00 -1.0000e+00
      -14  1    4    4    0    0 -1.7642834322e+01 +2.2331898042e+01 +1.2295389513e+01 3.1002578544e+01 0.0000000000e+00 0.0000e+00 1.0000e+00
<mgrwt>
<rscale>  2 0.19440861E+03</rscale>
<asrwt>0</asrwt>
<pdfrwt beam="1">  1       21 0.16292511E+00 0.19455165E+03</pdfrwt>
<pdfrwt beam="2">  1       21 0.78791987E-02 0.19455165E+03</pdfrwt>
<totfact> 0.29495300E+04</totfact>
</mgrwt>
</event>
<event>
13      2 +1.4674046e+01 1.83816300e+02 7.54677100e-03 1.16429100e-01
       21 -1    0    0  504  502 +0.0000000000e+00 +0.0000000000e+00 +3.7798187783e+02 3.7798187783e+02 0.0000000000e+00 0.0000e+00 -1.0000e+00
       21 -1    0    0  502  503 -0.0000000000e+00 -0.0000000000e+00 -1.9797989394e+02 1.9797989394e+02 0.0000000000e+00 0.0000e+00 -1.0000e+00
       -6  2    1    2    0  503 -5.9784017782e+01 +1.6004941583e+00 -9.5767109087e+01 2.0735157233e+02 1.7391562610e+02 0.0000e+00 0.0000e+00
      -24  2    3    3    0    0 -5.8848145894e+01 -6.2181909629e+01 -7.6727780277e+01 1.4061584778e+02 8.0968946033e+01 0.0000e+00 0.0000e+00
        6  2    1    2  501    0 +4.8999106858e+01 -2.6589669594e+01 +1.4113772265e+02 2.3125526117e+02 1.7450276806e+02 0.0000e+00 0.0000e+00
       24  2    5    5    0    0 +9.4301503939e+01 +2.1244940753e+00 +1.2111697323e+02 1.7381197797e+02 8.1510707050e+01 0.0000e+00 0.0000e+00
        5  1    5    5  501    0 -4.5302397081e+01 -2.8714163669e+01 +2.0020749428e+01 5.7443283195e+01 4.7000000000e+00 0.0000e+00 -1.0000e+00
      -13  1    6    6    0    0 +8.9610101686e+01 +3.1380906536e+01 +8.9474621889e+01 1.3046240677e+02 0.0000000000e+00 0.0000e+00 1.0000e+00
       14  1    6    6    0    0 +4.6914022533e+00 -2.9256412460e+01 +3.1642351336e+01 4.3349571200e+01 0.0000000000e+00 0.0000e+00 -1.0000e+00
       -5  1    3    3    0  503 -9.3587188807e-01 +6.3782403787e+01 -1.9039328810e+01 6.6735724545e+01 4.7000000000e+00 0.0000e+00 1.0000e+00
       13  1    4    4    0    0 +7.9530432136e+00 -1.4303912249e+01 -5.2411169259e+01 5.4907043857e+01 0.0000000000e+00 0.0000e+00 -1.0000e+00
      -14  1    4    4    0    0 -6.6801189107e+01 -4.7877997380e+01 -2.4316611018e+01 8.5708803927e+01 0.0000000000e+00 0.0000e+00 1.0000e+00
       21  1    1    2  504  501 +1.0784910924e+01 +2.4989175436e+01 +1.3463137033e+02 1.3735493828e+02 0.0000000000e+00 0.0000e+00 -1.0000e+00
<mgrwt>
<rscale>  3 0.18367677E+03</rscale>
<asrwt>0</asrwt>
<pdfrwt beam="1">  1       21 0.58151058E-01 0.18381625E+03</pdfrwt>
<pdfrwt beam="2">  1       21 0.30458445E-01 0.18381625E+03</pdfrwt>
<totfact> 0.28804363E+04</totfact>
</mgrwt>
</event>
<event>
12      1 +1.4674046e+01 1.77450900e+02 7.54677100e-03 1.17038400e-01
       21 -1    0    0  503  502 +0.0000000000e+00 +0.0000000000e+00 +1.9964079436e+02 1.9964079436e+02 0.0000000000e+00 0.0000e+00 -1.0000e+00
       21 -1    0    0  501  503 -0.0000000000e+00 -0.0000000000e+00 -1.7051016203e+02 1.7051016203e+02 0.0000000000e+00 0.0000e+00 -1.0000e+00
        6  2    1    2  501    0 +3.0751342564e+01 -1.2649283279e+01 +6.5899126166e+01 1.8929213030e+02 1.7430767719e+02 0.0000e+00 0.0000e+00
       24  2    3    3    0    0 +5.3778992039e+01 +5.0364036203e+01 +5.5115320497e+01 1.2117949170e+02 7.8854641768e+01 0.0000e+00 0.0000e+00
       -6  2    1    2    0  502 -3.0751342564e+01 +1.2649283279e+01 -3.6768493831e+01 1.8085882608e+02 1.7393200797e+02 0.0000e+00 0.0000e+00
      -24  2    5    5    0    0 +2.5844592002e+01 +1.8691871890e+01 +3.1191276719e+01 9.2088149055e+01 8.0560551404e+01 0.0000e+00 0.0000e+00
        5  1    3    3  501    0 -2.3027649475e+01 -6.3013319482e+01 +1.0783805669e+01 6.8112638601e+01 4.7000000000e+00 0.0000e+00 -1.0000e+00
      -13  1    4    4    0    0 +2.5405847906e+01 -1.4620699292e+01 -3.0443799539e+00 2.9470157871e+01 0.0000000000e+00 0.0000e+00 1.0000e+00
       14  1    4    4    0    0 +2.8373144133e+01 +6.4984735495e+01 +5.8159700451e+01 9.1709333832e+01 0.0000000000e+00 0.0000e+00 -1.0000e+00
       -5  1    5    5    0  502 -5.6595934566e+01 -6.0425886110e+00 -6.7959770551e+01 8.8770677027e+01 4.7000000000e+00 0.0000e+00 1.0000e+00
       13  1    6    6    0    0 +1.3666223581e+01 +1.6333019352e+01 -2.5976308287e+01 3.3590203636e+01 0.0000000000e+00 0.0000e+00 -1.0000e+00
      -14  1    6    6    0    0 +1.2178368421e+01 +2.3588525381e+00 +5.7167585006e+01 5.8497945418e+01 0.0000000000e+00 0.0000e+00 1.0000e+00
<mgrwt>
<rscale>  2 0.17735856E+03</rscale>
<asrwt>0</asrwt>
<pdfrwt beam="1">  1       21 0.30713968E-01 0.17745088E+03</pdfrwt>
<pdfrwt beam="2">  1       21 0.26232333E-01 0.17745088E+03</pdfrwt>
<totfact> 0.14130931E+05</totfact>
</mgrwt>
</event>
<event>
12      2 +1.4674046e+01 7.50406700e+02 7.54677100e-03 1.00224000e-01
        2 -1    0    0  503    0 -0.0000000000e+00 +0.0000000000e+00 +1.0546659160e+03 1.0546659160e+03 0.0000000000e+00 0.0000e+00 1.0000e+00
       21 -1    0    0  501  503 +0.0000000000e+00 -0.0000000000e+00 -6.3110906295e+02 6.3110906295e+02 0.0000000000e+00 0.0000e+00 1.0000e+00
      -24  2    1    2    0    0 -2.3401752829e+01 +3.5970054585e+02 +7.8635343313e+01 3.7761272662e+02 8.0471916634e+01 0.0000e+00 0.0000e+00
        6  2    1    2  501    0 +1.2472494345e+02 +6.5739308823e+00 -1.1299775267e+02 2.4056970781e+02 1.7177241957e+02 0.0000e+00 0.0000e+00
       24  2    4    4    0    0 -2.6531306140e-01 +9.0693609093e+00 -7.3009628492e+01 1.0923071334e+02 8.0737966205e+01 0.0000e+00 0.0000e+00
        5  1    4    4  501    0 +1.2499025651e+02 -2.4954300269e+00 -3.9988124175e+01 1.3133899447e+02 4.7000000000e+00 0.0000e+00 -1.0000e+00
      -13  1    5    5    0    0 -2.4380393566e+01 +2.6292882886e+01 -7.0985154179e+01 7.9527425425e+01 0.0000000000e+00 0.0000e+00 1.0000e+00
       14  1    5    5    0    0 +2.4115080504e+01 -1.7223521977e+01 -2.0244743131e+00 2.9703287920e+01 0.0000000000e+00 0.0000e+00 -1.0000e+00
       -5  1    1    2    0  502 -9.3473859007e+01 -3.0433864974e+02 -2.1986479545e+02 3.8693926439e+02 4.7000000000e+00 0.0000e+00 1.0000e+00
       13  1    3    3    0    0 +9.1986895832e+00 +2.8556283924e+02 +4.2219483178e+01 2.8881349657e+02 0.0000000000e+00 0.0000e+00 -1.0000e+00
      -14  1    3    3    0    0 -3.2600442412e+01 +7.4137706609e+01 +3.6415860134e+01 8.8799230042e+01 0.0000000000e+00 0.0000e+00 1.0000e+00
        2  1    1    2  502    0 -7.8493316125e+00 -6.1935826987e+01 +6.7778405785e+02 6.8065328013e+02 0.0000000000e+00 0.0000e+00 1.0000e+00
<mgrwt>
<rscale>  3 0.54678646E+03</rscale>
<asrwt>0</asrwt>
<pdfrwt beam="2">  1       21 0.97093702E-01 0.75040667E+03</pdfrwt>
<pdfrwt beam="1">  1        2 0.16225629E+00 0.75040667E+03</pdfrwt>
<totfact> 0.22244968E+02</totfact>
</mgrwt>
</event>
<event>
12      1 +1.4674046e+01 1.87398400e+02 7.54677100e-03 1.16082900e-01
        1 -1    0    0  502    0 +0.0000000000e+00 +0.0000000000e+00 +6.2118168761e+01 6.2118168761e+01 0.0000000000e+00 0.0000e+00 -1.0000e+00
       -1 -1    0    0    0  501 -0.0000000000e+00 -0.0000000000e+00 -6.1738511916e+02 6.1738511916e+02 0.0000000000e+00 0.0000e+00 1.0000e+00
        6  2    1    2  502    0 +1.6141911652e+01 -7.0231885512e+01 -3.7636670868e+02 4.2047074483e+02 1.7306261527e+02 0.0000e+00 0.0000e+00
       24  2    3    3    0    0 +3.3206922277e+00 +2.3297088463e+01 -2.4388730215e+02 2.5772881479e+02 7.9933375347e+01 0.0000e+00 0.0000e+00
       -6  2    1    2    0  501 -1.6141911652e+01 +7.0231885512e+01 -1.7890024172e+02 2.5903254309e+02 1.7291466924e+02 0.0000e+00 0.0000e+00
      -24  2    5    5    0    0 +3.3603250233e+01 +2.4969490215e+00 -3.6785851137e+01 9.3862349764e+01 7.9508041597e+01 0.0000e+00 0.0000e+00
        5  1    3    3  502    0 +1.2821219424e+01 -9.3528973975e+01 -1.3247940653e+02 1.6274193005e+02 4.7000000000e+00 0.0000e+00 -1.0000e+00
      -13  1    4    4    0    0 +3.8082428334e+01 +2.3970383481e+01 -9.9298960614e+01 1.0901896262e+02 0.0000000000e+00 0.0000e+00 1.0000e+00
       14  1    4    4    0    0 -3.4761736107e+01 -6.7329501770e-01 -1.4458834153e+02 1.4870985216e+02 0.0000000000e+00 0.0000e+00 -1.0000e+00
       -5  1    5    5    0  501 -4.9745161885e+01 +6.7734936490e+01 -1.4211439058e+02 1.6517019332e+02 4.7000000000e+00 0.0000e+00 1.0000e+00
       13  1    6    6    0    0 -5.8082372541e+00 +2.4668220736e+01 -4.1260227764e+01 4.8421721669e+01 0.0000000000e+00 0.0000e+00 -1.0000e+00
      -14  1    6    6    0    0 +3.9411487487e+01 -2.2171271715e+01 +4.4743766265e+00 4.5440628094e+01 0.0000000000e+00 0.0000e+00 1.0000e+00
<mgrwt>
<rscale>  2 0.18739836E+03</rscale>
<asrwt>0</asrwt>
<pdfrwt beam="1">  1        1 0.95566413E-02 0.18739836E+03</pdfrwt>
<pdfrwt beam="2">  1       -1 0.94982327E-01 0.18739836E+03</pdfrwt>
<totfact> 0.76741604E+02</totfact>
</mgrwt>
</event>
<event>
12      1 +1.4674046e+01 2.13085100e+02 7.54677100e-03 1.13956200e-01
       21 -1    0    0  503  502 +0.0000000000e+00 +0.0000000000e+00 +1.2952171506e+03 1.2952171506e+03 0.0000000000e+00 0.0000e+00 1.0000e+00
       21 -1    0    0  501  503 -0.0000000000e+00 -0.0000000000e+00 -8.5172871709e+01 8.5172871709e+01 0.0000000000e+00 0.0000e+00 1.0000e+00
        6  2    1    2  501    0 +1.2371020668e+02 -1.5540966748e+01 +7.4984510217e+01 2.2589367406e+02 1.7279912710e+02 0.0000e+00 0.0000e+00
       24  2    3    3    0    0 +1.2312082827e+02 -6.7162374525e+01 +5.9465181421e+01 1.7178215335e+02 7.9394442518e+01 0.0000e+00 0.0000e+00
       -6  2    1    2    0  502 -1.2371020668e+02 +1.5540966748e+01 +1.1350597687e+03 1.1544963483e+03 1.7016287130e+02 0.0000e+00 0.0000e+00
      -24  2    5    5    0    0 -1.9865207748e+01 +5.1570210232e+01 +6.3308503750e+02 6.4060666073e+02 8.0784379770e+01 0.0000e+00 0.0000e+00
        5  1    3    3  501    0 +5.8937841266e-01 +5.1621407777e+01 +1.5519328796e+01 5.4111520715e+01 4.7000000000e+00 0.0000e+00 -1.0000e+00
      -13  1    4    4    0    0 +8.6173506520e+01 -2.8492766155e+01 +7.3156537346e+01 1.1657439644e+02 0.0000000000e+00 0.0000e+00 1.0000e+00
       14  1    4    4    0    0 +3.6947321746e+01 -3.8669608369e+01 -1.3691355925e+01 5.5207756907e+01 0.0000000000e+00 0.0000e+00 -1.0000e+00
       -5  1    5    5    0  502 -1.0384499893e+02 -3.6029243484e+01 +5.0197473120e+02 5.1388968754e+02 4.7000000000e+00 0.0000e+00 1.0000e+00
       13  1    6    6    0    0 +1.0475361399e+01 -1.6107773707e+01 +6.7571924494e+01 7.0250683627e+01 0.0000000000e+00 0.0000e+00 -1.0000e+00
      -14  1    6    6    0    0 -3.0340569147e+01 +6.7677983939e+01 +5.6551311300e+02 5.7035597711e+02 0.0000000000e+00 0.0000e+00 1.0000e+00
<mgrwt>
<rscale>  2 0.21255007E+03</rscale>
<asrwt>0</asrwt>
<pdfrwt beam="1">  1       21 0.19926416E+00 0.21308514E+03</pdfrwt>
<pdfrwt beam="2">  1       21 0.13103520E-01 0.21308514E+03</pdfrwt>
<totfact> 0.66827054E+03</totfact>
</mgrwt>
</event>
<event>
14      3 +1.4674046e+01 2.32323900e+02 7.54677100e-03 1.12582600e-01
        1 -1    0    0  504    0 -0.0000000000e+00 +0.0000000000e+00 +1.6408647423e+03 1.6408647423e+03 0.0000000000e+00 0.0000e+00 -1.0000e+00
       21 -1    0    0  501  503 +0.0000000000e+00 -0.0000000000e+00 -3.8738811995e+02 3.8738811995e+02 0.0000000000e+00 0.0000e+00 1.0000e+00
       -6  2    1    2    0  502 +3.6965214642e+01 +1.7578155349e+02 +3.7089838389e+02 4.4431684578e+02 1.6609113954e+02 0.0000e+00 0.0000e+00
      -24  2    3    3    0    0 +8.0064540814e+01 +1.6327459494e+02 +2.8930644284e+02 3.5107892017e+02 8.0555982215e+01 0.0000e+00 0.0000e+00
        6  2    1    2  501    0 -4.3196173218e+01 -1.2692415752e+02 +4.1275546970e+02 4.6696362988e+02 1.7237256950e+02 0.0000e+00 0.0000e+00
       24  2    5    5    0    0 -7.6141027467e+00 -2.6889284728e+01 +7.6700311858e+01 1.1450339293e+02 8.0293716817e+01 0.0000e+00 0.0000e+00
        5  1    5    5  501    0 -3.5582070471e+01 -1.0003487280e+02 +3.3605515784e+02 3.5246023694e+02 4.7000000000e+00 0.0000e+00 -1.0000e+00
      -13  1    6    6    0    0 -1.2962569294e+01 -4.8216058867e+01 +2.0171183587e+01 5.3848799269e+01 0.0000000000e+00 0.0000e+00 1.0000e+00
       14  1    6    6    0    0 +5.3484665474e+00 +2.1326774139e+01 +5.6529128270e+01 6.0654593664e+01 0.0000000000e+00 0.0000e+00 -1.0000e+00
       -5  1    3    3    0  502 -4.3099326172e+01 +1.2506958552e+01 +8.1591941047e+01 9.3237925613e+01 4.7000000000e+00 0.0000e+00 1.0000e+00
       13  1    4    4    0    0 +4.2869109853e+01 +5.9677406151e+01 +5.3642213751e+01 9.0976043443e+01 0.0000000000e+00 0.0000e+00 -1.0000e+00
      -14  1    4    4    0    0 +3.7195430961e+01 +1.0359718879e+02 +2.3566422909e+02 2.6010287673e+02 0.0000000000e+00 0.0000e+00 1.0000e+00
       21  1    1    2  504  503 -6.2552853981e+00 -2.4961186776e+01 -3.2283362066e+02 3.2385758609e+02 0.0000000000e+00 0.0000e+00 1.0000e+00
        1  1    1    2  502    0 +1.2486243974e+01 -2.3896209191e+01 +7.9265638946e+02 7.9311480055e+02 0.0000000000e+00 0.0000e+00 -1.0000e+00
<mgrwt>
<rscale>  4 0.23115978E+03</rscale>
<asrwt>0</asrwt>
<pdfrwt beam="2">  1       21 0.59598174E-01 0.23232389E+03</pdfrwt>
<pdfrwt beam="1">  1        1 0.25244072E+00 0.23232389E+03</pdfrwt>
<totfact> 0.16756883E+02</totfact>
</mgrwt>
</event>
<event>
13      2 +1.4674046e+01 3.32500500e+02 7.54677100e-03 1.07012600e-01
       21 -1    0    0  503  502 +0.0000000000e+00 +0.0000000000e+00 +8.1227041242e+02 8.1227041242e+02 0.0000000000e+00 0.0000e+00 -1.0000e+00
       21 -1    0    0  504  503 -0.0000000000e+00 -0.0000000000e+00 -1.6601859798e+02 1.6601859798e+02 0.0000000000e+00 0.0000e+00 1.0000e+00
        6  2    1    2  501    0 -2.1947723618e+02 +1.9893650006e+02 +1.9195914954e+02 3.9331334431e+02 1.7349663819e+02 0.0000e+00 0.0000e+00
       24  2    3    3    0    0 -1.9219795202e+02 +1.7694006169e+02 +9.3265221054e+01 2.8847735733e+02 7.9201932091e+01 0.0000e+00 0.0000e+00
       -6  2    1    2    0  502 +2.1942935852e+02 -1.6714695801e+02 +4.4462169536e+02 5.5174759169e+02 1.7507028304e+02 0.0000e+00 0.0000e+00
      -24  2    5    5    0    0 +6.5099858507e+01 -1.0161971846e+01 +1.1775233313e+02 1.5763142809e+02 8.1491091004e+01 0.0000e+00 0.0000e+00
        5  1    3    3  501    0 -2.7279284166e+01 +2.1996438377e+01 +9.8693928485e+01 1.0483598698e+02 4.7000000000e+00 0.0000e+00 -1.0000e+00
      -13  1    4    4    0    0 -2.0681477426e+01 +4.7806498855e+01 -5.0712418317e+00 5.2334523357e+01 0.0000000000e+00 0.0000e+00 1.0000e+00
       14  1    4    4    0    0 -1.7151647459e+02 +1.2913356283e+02 +9.8336462885e+01 2.3614283398e+02 0.0000000000e+00 0.0000e+00 -1.0000e+00
       -5  1    5    5    0  502 +1.5432950001e+02 -1.5698498616e+02 +3.2686936223e+02 3.9411616361e+02 4.7000000000e+00 0.0000e+00 1.0000e+00
       13  1    6    6    0    0 +3.2695064121e+01 -8.2330187406e+00 +1.2042856533e+02 1.2505914266e+02 0.0000000000e+00 0.0000e+00 -1.0000e+00
      -14  1    6    6    0    0 +3.2404794386e+01 -1.9289531052e+00 -2.6762321947e+00 3.2572285429e+01 0.0000000000e+00 0.0000e+00 1.0000e+00
       21  1    1    2  504  501 +4.7877668047e-02 -3.1789542054e+01 +9.6709695338e+00 3.3228074395e+01 0.0000000000e+00 0.0000e+00 1.0000e+00
<mgrwt>
<rscale>  3 0.33229383E+03</rscale>
<asrwt>0</asrwt>
<pdfrwt beam="1">  1       21 0.12496468E+00 0.33250049E+03</pdfrwt>
<pdfrwt beam="2">  1       21 0.25541323E-01 0.33250049E+03</pdfrwt>
<totfact> 0.63823177E+03</totfact>
</mgrwt>
</event>
<event>
12      1 +1.4674046e+01 4.07952400e+02 7.54677100e-03 1.04116300e-01
       21 -1    0    0  503  502 +0.0000000000e+00 +0.0000000000e+00 +1.2433103920e+03 1.2433103920e+03 0.0000000000e+00 0.0000e+00 1.0000e+00
       21 -1    0    0  501  503 -0.0000000000e+00 -0.0000000000e+00 -1.3345693384e+02 1.3345693384e+02 0.0000000000e+00 0.0000e+00 -1.0000e+00
        6  2    1    2  501    0 -3.6792885044e+02 -5.7373925558e+00 +5.5466831665e+02 6.8781470833e+02 1.7328466420e+02 0.0000e+00 0.0000e+00
       24  2    3    3    0    0 -1.3341317264e+02 -4.0570061568e+01 +2.9067032220e+02 3.3295142616e+02 8.3201030294e+01 0.0000e+00 0.0000e+00
       -6  2    1    2    0  502 +3.6792885044e+02 +5.7373925558e+00 +5.5518514150e+02 6.8895261750e+02 1.7612669062e+02 0.0000e+00 0.0000e+00
      -24  2    5    5    0    0 +2.4224537420e+02 -5.9055769141e+01 +4.0725926491e+02 4.8426103250e+02 8.0487474508e+01 0.0000e+00 0.0000e+00
        5  1    3    3  501    0 -2.3451567780e+02 +3.4832669012e+01 +2.6399799444e+02 3.5486328217e+02 4.7000000000e+00 0.0000e+00 -1.0000e+00
      -13  1    4    4    0    0 -8.7745110050e+01 -1.9724381655e+01 +2.5757179703e+02 2.7282134483e+02 0.0000000000e+00 0.0000e+00 1.0000e+00
       14  1    4    4    0    0 -4.5668062593e+01 -2.0845679913e+01 +3.3098525171e+01 6.0130081329e+01 0.0000000000e+00 0.0000e+00 -1.0000e+00
       -5  1    5    5    0  502 +1.2568347625e+02 +6.4793161697e+01 +1.4792587659e+02 2.0469158500e+02 4.7000000000e+00 0.0000e+00 1.0000e+00
       13  1    6    6    0    0 +2.4952985794e+00 -1.8033290168e+01 +2.0948137814e+01 2.7753388030e+01 0.0000000000e+00 0.0000e+00 -1.0000e+00
      -14  1    6    6    0    0 +2.3975007562e+02 -4.1022478974e+01 +3.8631112709e+02 4.5650764447e+02 0.0000000000e+00 0.0000e+00 1.0000e+00
<mgrwt>
<rscale>  2 0.40764734E+03</rscale>
<asrwt>0</asrwt>
<pdfrwt beam="1">  1       21 0.19127851E+00 0.40795241E+03</pdfrwt>
<pdfrwt beam="2">  1       21 0.20531837E-01 0.40795241E+03</pdfrwt>
<totfact> 0.29207691E+03</totfact>
</mgrwt>
</event>
<event>
14      3 +1.4674046e+01 2.54373400e+02 7.54677100e-03 1.11058600e-01
       21 -1    0    0  504  502 +0.0000000000e+00 +0.0000000000e+00 +1.4692672998e+03 1.4692672998e+03 0.0000000000e+00 0.0000e+00 1.0000e+00
       21 -1    0    0  501  503 -0.0000000000e+00 -0.0000000000e+00 -9.0633268695e+01 9.0633268695e+01 0.0000000000e+00 0.0000e+00 -1.0000e+00
        6  2    1    2  501    0 -5.7526216940e+00 +1.9190564305e+02 +3.1766929961e+02 4.0967986261e+02 1.7338667025e+02 0.0000e+00 0.0000e+00
       24  2    3    3    0    0 -1.3260407663e+01 +1.5882418104e+02 +3.2834849055e+02 3.7380668185e+02 8.0732553884e+01 0.0000e+00 0.0000e+00
       -6  2    1    2    0  505 +6.2423624784e+01 -1.7160288462e+02 +5.2235231473e+02 5.7991989594e+02 1.7352488600e+02 0.0000e+00 0.0000e+00
      -24  2    5    5    0    0 +5.7813675810e+01 -3.0450689691e+01 +2.9300404591e+02 3.1053557536e+02 7.9443735009e+01 0.0000e+00 0.0000e+00
        5  1    3    3  501    0 +7.5077859688e+00 +3.3081462013e+01 -1.0679190933e+01 3.5873180763e+01 4.7000000000e+00 0.0000e+00 -1.0000e+00
      -13  1    4    4    0    0 +3.2508267914e+01 +8.4547679310e+01 +1.8522461890e+02 2.0618743174e+02 0.0000000000e+00 0.0000e+00 1.0000e+00
       14  1    4    4    0    0 -4.5768675577e+01 +7.4276501728e+01 +1.4312387164e+02 1.6761925011e+02 0.0000000000e+00 0.0000e+00 -1.0000e+00
       -5  1    5    5    0  505 +4.6099489743e+00 -1.4115219493e+02 +2.2934826883e+02 2.6938432058e+02 4.7000000000e+00 0.0000e+00 1.0000e+00
       13  1    6    6    0    0 +5.1558804981e+01 -5.3411388125e+01 +1.7398851922e+02 1.8916419210e+02 0.0000000000e+00 0.0000e+00 -1.0000e+00
      -14  1    6    6    0    0 +6.2548708289e+00 +2.2960698433e+01 +1.1901552668e+02 1.2137138325e+02 0.0000000000e+00 0.0000e+00 1.0000e+00
       21  1    1    2  504  503 -9.1349667412e+01 -3.8743155316e+01 +1.5087891620e+02 1.8058305893e+02 0.0000000000e+00 0.0000e+00 1.0000e+00
       21  1    1    2  505  502 +3.4678664322e+01 +1.8440396882e+01 +3.8773350056e+02 3.8971775101e+02 0.0000000000e+00 0.0000e+00 -1.0000e+00
<mgrwt>
<rscale>  4 0.25434988E+03</rscale>
<asrwt>0</asrwt>
<pdfrwt beam="1">  1       21 0.22604111E+00 0.25437345E+03</pdfrwt>
<pdfrwt beam="2">  1       21 0.13943581E-01 0.25437345E+03</pdfrwt>
<totfact> 0.39176297E+03</totfact>
</mgrwt>
</event>
<event>
12      2 +1.4674046e+01 5.70580200e+02 7.54677100e-03 1.03231300e-01
       21 -1    0    0  501  502 +0.0000000000e+00 +0.0000000000e+00 +9.2540566139e+02 9.2540566139e+02 0.0000000000e+00 0.0000e+00 1.0000e+00
       21 -1    0    0  504  503 -0.0000000000e+00 -0.0000000000e+00 -5.1679833309e+02 5.1679833309e+02 0.0000000000e+00 0.0000e+00 1.0000e+00
      -24  2    1    2    0    0 +5.8692716250e+01 -2.2753524967e+02 +1.3619173294e+02 2.8294527312e+02 7.9326632839e+01 0.0000e+00 0.0000e+00
        6  2    1    2  501    0 -5.2758562907e+01 -5.8817301290e+01 +2.7507646800e+02 3.3476909568e+02 1.7366733511e+02 0.0000e+00 0.0000e+00
       24  2    4    4    0    0 -9.2299571710e+00 +3.3612007992e+01 +1.3866390717e+02 1.6427454009e+02 8.0891817765e+01 0.0000e+00 0.0000e+00
        5  1    4    4  501    0 -4.3528605736e+01 -9.2429309282e+01 +1.3641256083e+02 1.7049455559e+02 4.7000000000e+00 0.0000e+00 -1.0000e+00
      -13  1    5    5    0    0 +9.1337859867e+00 +3.0483722259e+01 +8.7111854772e+00 3.2993455740e+01 0.0000000000e+00 0.0000e+00 1.0000e+00
       14  1    5    5    0    0 -1.8363743158e+01 +3.1282857328e+00 +1.2995272169e+02 1.3128108435e+02 0.0000000000e+00 0.0000e+00 -1.0000e+00
       -5  1    1    2    0  503 +3.5397108081e-01 +3.1223509991e+02 +3.5101439525e+02 4.6981281228e+02 4.7000000000e+00 0.0000e+00 1.0000e+00
       13  1    3    3    0    0 +2.9955792001e+01 -2.0927722205e+02 +1.3044992011e+02 2.4841796795e+02 0.0000000000e+00 0.0000e+00 -1.0000e+00
      -14  1    3    3    0    0 +2.8736924248e+01 -1.8258027625e+01 +5.7418128232e+00 3.4527305173e+01 0.0000000000e+00 0.0000e+00 1.0000e+00
       21  1    1    2  504  502 -6.2881244241e+00 -2.5882548948e+01 -3.5367526789e+02 3.5467681340e+02 0.0000000000e+00 0.0000e+00 1.0000e+00
<mgrwt>
<rscale>  3 0.43493123E+03</rscale>
<asrwt>0</asrwt>
<pdfrwt beam="1">  1       21 0.14237010E+00 0.57058019E+03</pdfrwt>
<pdfrwt beam="2">  1       21 0.79507436E-01 0.57058019E+03</pdfrwt>
<totfact> 0.37714304E+02</totfact>
</mgrwt>
</event>
<event>
14      3 +1.4674046e+01 1.73603800e+02 7.54677100e-03 1.17437300e-01
       21 -1    0    0  504  503 +0.0000000000e+00 +0.0000000000e+00 +2.3863300827e+02 2.3863300827e+02 0.0000000000e+00 0.0000e+00 1.0000e+00
        1 -1    0    0  503    0 -0.0000000000e+00 -0.0000000000e+00 -1.7705629339e+03 1.7705629339e+03 0.0000000000e+00 0.0000e+00 -1.0000e+00
       -6  2    1    2    0  502 -6.4591237284e+01 +2.5301470272e+01 -1.1687818353e+00 1.8583832692e+02 1.7240163969e+02 0.0000e+00 0.0000e+00
      -24  2    3    3    0    0 +1.2167944141e+01 -3.3903219854e+01 +1.3428841648e+00 8.8752974097e+01 8.1103636738e+01 0.0000e+00 0.0000e+00
        6  2    1    2  501    0 -4.1987152000e+01 +4.3765302599e+01 -1.1071872794e+02 2.1441954626e+02 1.7331699991e+02 0.0000e+00 0.0000e+00
       24  2    5    5    0    0 -5.4414342713e+01 -4.2153676430e+00 -1.1193327520e+01 1.0313623613e+02 8.6793447937e+01 0.0000e+00 0.0000e+00
        5  1    5    5  501    0 +1.2427190713e+01 +4.7980670242e+01 -9.9525400416e+01 1.1128331013e+02 4.7000000000e+00 0.0000e+00 -1.0000e+00
      -13  1    6    6    0    0 +5.5791042329e-01 +2.2801029595e+01 +2.3494169876e+01 3.2744071720e+01 0.0000000000e+00 0.0000e+00 1.0000e+00
       14  1    6    6    0    0 -5.4972253136e+01 -2.7016397238e+01 -3.4687497397e+01 7.0392164409e+01 0.0000000000e+00 0.0000e+00 -1.0000e+00
       -5  1    3    3    0  502 -7.6759181425e+01 +5.9204690126e+01 -2.5116660001e+00 9.7085352819e+01 4.7000000000e+00 0.0000e+00 1.0000e+00
       13  1    4    4    0    0 -9.6009499471e+00 -3.8170821743e+01 +3.2128377050e+01 5.0807701033e+01 0.0000000000e+00 0.0000e+00 -1.0000e+00
      -14  1    4    4    0    0 +2.1768894088e+01 +4.2676018897e+00 -3.0785492885e+01 3.7945273064e+01 0.0000000000e+00 0.0000e+00 1.0000e+00
       21  1    1    2  504  501 +6.7833865165e+01 +3.0443281090e+01 +7.7613086180e+01 1.0748031342e+02 0.0000000000e+00 0.0000e+00 1.0000e+00
        1  1    1    2  502    0 +3.8744524119e+01 -9.9510053962e+01 -1.4976555020e+03 1.5014577555e+03 0.0000000000e+00 0.0000e+00 -1.0000e+00
<mgrwt>
<rscale>  4 0.17337494E+03</rscale>
<asrwt>0</asrwt>
<pdfrwt beam="1">  1       21 0.36712770E-01 0.17360385E+03</pdfrwt>
<pdfrwt beam="2">  1        1 0.27239430E+00 0.17360385E+03</pdfrwt>
<totfact> 0.39416365E+02</totfact>
</mgrwt>
</event>
<event>
14      3 +1.4674046e+01 3.85958800e+02 7.54677100e-03 1.04879500e-01
       21 -1    0    0  504  502 +0.0000000000e+00 +0.0000000000e+00 +1.3921690356e+02 1.3921690356e+02 0.0000000000e+00 0.0000e+00 1.0000e+00
       21 -1    0    0  505  503 -0.0000000000e+00 -0.0000000000e+00 -3.2511119774e+03 3.2511119774e+03 0.0000000000e+00 0.0000e+00 1.0000e+00
        6  2    1    2  501    0 +3.6577635808e+02 -2.9080438717e+01 -7.9886193238e+02 8.9598521677e+02 1.7312164978e+02 0.0000e+00 0.0000e+00
       24  2    3    3    0    0 +1.1629682307e+02 +2.8980819311e+01 -3.5451059606e+02 3.8307065453e+02 8.1856732766e+01 0.0000e+00 0.0000e+00
       -6  2    1    2    0  503 -3.3661011363e+02 +3.2052960111e+01 -2.3690051592e+03 2.3991951306e+03 1.7209901023e+02 0.0000e+00 0.0000e+00
      -24  2    5    5    0    0 -3.3249746282e+02 +6.2740506309e+01 -2.1981928413e+03 2.2255357590e+03 8.0415875711e+01 0.0000e+00 0.0000e+00
        5  1    3    3  501    0 +2.4947953501e+02 -5.8061258028e+01 -4.4435133632e+02 5.1291456224e+02 4.7000000000e+00 0.0000e+00 -1.0000e+00
      -13  1    4    4    0    0 +2.0845506440e+01 +2.5885541070e+01 -2.9909067522e+01 4.4711840661e+01 0.0000000000e+00 0.0000e+00 1.0000e+00
       14  1    4    4    0    0 +9.5451316634e+01 +3.0952782410e+00 -3.2460152853e+02 3.3835881387e+02 0.0000000000e+00 0.0000e+00 -1.0000e+00
       -5  1    5    5    0  503 -4.1126508097e+00 -3.0687546198e+01 -1.7081231794e+02 1.7365937161e+02 4.7000000000e+00 0.0000e+00 1.0000e+00
       13  1    6    6    0    0 -7.5405026934e+01 -1.1473888017e+01 -3.6206705495e+02 3.7001367606e+02 0.0000000000e+00 0.0000e+00 -1.0000e+00
      -14  1    6    6    0    0 -2.5709243588e+02 +7.4214394326e+01 -1.8361257863e+03 1.8555220829e+03 0.0000000000e+00 0.0000e+00 1.0000e+00
       21  1    1    2  504  501 -1.0827676177e+00 +2.0840021003e+01 -7.1613187137e+00 2.2062713950e+01 0.0000000000e+00 0.0000e+00 1.0000e+00
       21  1    1    2  505  502 -2.8083476840e+01 -2.3812542398e+01 +6.3133336523e+01 7.3085819605e+01 0.0000000000e+00 0.0000e+00 1.0000e+00
<mgrwt>
<rscale>  4 0.38584430E+03</rscale>
<asrwt>0</asrwt>
<pdfrwt beam="1">  1       21 0.21417984E-01 0.38595875E+03</pdfrwt>
<pdfrwt beam="2">  1       21 0.50017111E+00 0.38595875E+03</pdfrwt>
<totfact> 0.29635060E+01</totfact>
</mgrwt>
</event>
<event>
13      3 +1.4674046e+01 4.51809900e+02 7.54677100e-03 1.04751900e-01
       21 -1    0    0  501  502 +0.0000000000e+00 +0.0000000000e+00 +4.5645684575e+02 4.5645684575e+02 0.0000000000e+00 0.0000e+00 1.0000e+00
       21 -1    0    0  505  503 -0.0000000000e+00 -0.0000000000e+00 -1.9704977472e+03 1.9704977472e+03 0.0000000000e+00 0.0000e+00 1.0000e+00
      -24  2    1    2    0    0 -1.8932384027e+02 +1.4533335672e+02 -6.2154642805e+02 6.7043628407e+02 7.8737206628e+01 0.0000e+00 0.0000e+00
        6  2    1    2  501    0 +9.5228647436e+00 -1.7634412897e+02 -4.3417167727e+02 4.9963000018e+02 1.7302356764e+02 0.0000e+00 0.0000e+00
       24  2    4    4    0    0 +1.0023249071e+00 -9.5489994404e+01 -1.1260282878e+02 1.6790932702e+02 7.9967501939e+01 0.0000e+00 0.0000e+00
        5  1    4    4  501    0 +8.5205398365e+00 -8.0854134567e+01 -3.2156884850e+02 3.3172067315e+02 4.7000000000e+00 0.0000e+00 -1.0000e+00
      -13  1    5    5    0    0 +1.3643090787e+01 +1.0484931516e+01 -1.0208175587e+01 2.0006862921e+01 0.0000000000e+00 0.0000e+00 1.0000e+00
       14  1    5    5    0    0 -1.2640765880e+01 -1.0597492592e+02 -1.0239465319e+02 1.4790246410e+02 0.0000000000e+00 0.0000e+00 -1.0000e+00
       -5  1    1    2    0  503 +1.9527594905e+02 +3.1689810505e+01 -5.8958283257e+02 6.2190589869e+02 4.7000000000e+00 0.0000e+00 1.0000e+00
       13  1    3    3    0    0 -7.2430202042e+01 +3.5618381069e+01 -1.2630253662e+02 1.4989040661e+02 0.0000000000e+00 0.0000e+00 -1.0000e+00
      -14  1    3    3    0    0 -1.1689363823e+02 +1.0971497565e+02 -4.9524389143e+02 5.2054587746e+02 0.0000000000e+00 0.0000e+00 1.0000e+00
       21  1    1    2  504  502 -3.7353511878e+01 -1.7978027809e+01 +3.8122193345e+02 3.8346923850e+02 0.0000000000e+00 0.0000e+00 1.0000e+00
       21  1    1    2  505  504 +2.1878538357e+01 +1.7298989557e+01 -2.4996189698e+02 2.5151317147e+02 0.0000000000e+00 0.0000e+00 1.0000e+00
<mgrwt>
<rscale>  4 0.38938350E+03</rscale>
<asrwt>0</asrwt>
<pdfrwt beam="1">  1       21 0.70224129E-01 0.45180993E+03</pdfrwt>
<pdfrwt beam="2">  1       21 0.30315351E+00 0.45180993E+03</pdfrwt>
<totfact> 0.45720425E+01</totfact>
</mgrwt>
</event>
<event>
13      3 +1.4674046e+01 9.00278100e+02 7.54677100e-03 9.86395800e-02
        2 -1    0    0  503    0 -0.0000000000e+00 +0.0000000000e+00 +3.9970458014e+03 3.9970458014e+03 0.0000000000e+00 0.0000e+00 1.0000e+00
       21 -1    0    0  504  503 +0.0000000000e+00 -0.0000000000e+00 -6.1417289912e+02 6.1417289912e+02 0.0000000000e+00 0.0000e+00 -1.0000e+00
      -24  2    1    2    0    0 -2.5851641288e+02 +2.5045349353e+02 +1.4241342310e+03 1.4710833211e+03 7.9813167910e+01 0.0000e+00 0.0000e+00
        6  2    1    2  501    0 +8.7452814119e+01 +5.5672106080e+01 +3.8107641545e+02 4.2972098335e+02 1.6939159077e+02 0.0000e+00 0.0000e+00
       24  2    4    4    0    0 +9.1267609557e+01 +4.0576274547e+01 +1.4733850212e+02 1.9541789135e+02 8.0643086753e+01 0.0000e+00 0.0000e+00
        5  1    4    4  501    0 -3.8147954377e+00 +1.5095831534e+01 +2.3373791333e+02 2.3430309200e+02 4.7000000000e+00 0.0000e+00 -1.0000e+00
      -13  1    5    5    0    0 +3.5331557970e+01 +2.9460668924e+00 +1.1558129261e+02 1.2089678862e+02 0.0000000000e+00 0.0000e+00 1.0000e+00
       14  1    5    5    0    0 +5.5936051587e+01 +3.7630207654e+01 +3.1757209518e+01 7.4521102727e+01 0.0000000000e+00 0.0000e+00 -1.0000e+00
       -5  1    1    2    0  502 +1.2813636835e+02 -3.2309077481e+02 +2.3638869280e+02 4.2036684188e+02 4.7000000000e+00 0.0000e+00 1.0000e+00
       13  1    3    3    0    0 -1.5978231557e+02 +1.5091283407e+02 +7.0706624358e+02 7.4043753596e+02 0.0000000000e+00 0.0000e+00 -1.0000e+00
      -14  1    3    3    0    0 -9.8734097318e+01 +9.9540659456e+01 +7.1706798738e+02 7.3064578517e+02 0.0000000000e+00 0.0000e+00 1.0000e+00
       21  1    1    2  504  501 +1.5627889508e+01 +1.7841235589e+01 -4.7398773756e+02 4.7458077919e+02 0.0000000000e+00 0.0000e+00 -1.0000e+00
        2  1    1    2  502    0 +2.7299340905e+01 -8.7606038518e-01 +1.8152613006e+03 1.8154667750e+03 0.0000000000e+00 0.0000e+00 1.0000e+00
<mgrwt>
<rscale>  4 0.62040270E+03</rscale>
<asrwt>0</asrwt>
<pdfrwt beam="2">  1       21 0.94488141E-01 0.90027813E+03</pdfrwt>
<pdfrwt beam="1">  1        2 0.61493011E+00 0.90027813E+03</pdfrwt>
<totfact> 0.36708157E+00</totfact>
</mgrwt>
</event>
<event>
12      1 +1.4674046e+01 2.18926100e+02 7.54677100e-03 1.13472900e-01
       21 -1    0    0  503  502 +0.0000000000e+00 +0.0000000000e+00 +1.6234163743e+02 1.6234163743e+02 0.0000000000e+00 0.0000e+00 1.0000e+00
       21 -1    0    0  501  503 -0.0000000000e+00 -0.0000000000e+00 -3.6992409098e+02 3.6992409098e+02 0.0000000000e+00 0.0000e+00 -1.0000e+00
        6  2    1    2  501    0 +1.1345650694e+02 -7.1689637260e+01 -2.2366190266e+02 3.1297492327e+02 1.7296494685e+02 0.0000e+00 0.0000e+00
       24  2    3    3    0    0 +2.7081439038e+01 +2.3600756351e+01 -6.8538330856e+01 1.1141519515e+02 8.0158860233e+01 0.0000e+00 0.0000e+00
       -6  2    1    2    0  502 -1.1345650694e+02 +7.1689637260e+01 +1.6079449110e+01 2.1929080514e+02 1.7267925608e+02 0.0000e+00 0.0000e+00
      -24  2    5    5    0    0 -1.0756511286e+02 +2.4719594381e+01 +6.4740373905e+01 1.5124031614e+02 8.0628812231e+01 0.0000e+00 0.0000e+00
        5  1    3    3  501    0 +8.6375067897e+01 -9.5290393611e+01 -1.5512357181e+02 2.0155972812e+02 4.7000000000e+00 0.0000e+00 -1.0000e+00
      -13  1    4    4    0    0 -1.6480708596e+01 +9.0197491534e+00 -6.2281427853e+01 6.5053407951e+01 0.0000000000e+00 0.0000e+00 1.0000e+00
       14  1    4    4    0    0 +4.3562147634e+01 +1.4581007198e+01 -6.2569030027e+00 4.6361787202e+01 0.0000000000e+00 0.0000e+00 -1.0000e+00
       -5  1    5    5    0  502 -5.8913940803e+00 +4.6970042879e+01 -4.8660924795e+01 6.8050489008e+01 4.7000000000e+00 0.0000e+00 1.0000e+00
       13  1    6    6    0    0 -3.3724639350e+01 +2.3710241124e+01 -1.3762767068e+01 4.3461944168e+01 0.0000000000e+00 0.0000e+00 -1.0000e+00
      -14  1    6    6    0    0 -7.3840473505e+01 +1.0093532562e+00 +7.8503140973e+01 1.0777837197e+02 0.0000000000e+00 0.0000e+00 1.0000e+00
<mgrwt>
<rscale>  2 0.21886971E+03</rscale>
<asrwt>0</asrwt>
<pdfrwt beam="1">  1       21 0.24975637E-01 0.21892614E+03</pdfrwt>
<pdfrwt beam="2">  1       21 0.56911398E-01 0.21892614E+03</pdfrwt>
<totfact> 0.43457625E+04</totfact>
</mgrwt>
</event>
<event>
13      2 +1.4674046e+01 2.43105300e+02 7.54677100e-03 1.11775300e-01
       21 -1    0    0  504  502 +0.0000000000e+00 +0.0000000000e+00 +1.3016639569e+03 1.3016639569e+03 0.0000000000e+00 0.0000e+00 1.0000e+00
       21 -1    0    0  501  503 -0.0000000000e+00 -0.0000000000e+00 -5.6151752134e+01 5.6151752134e+01 0.0000000000e+00 0.0000e+00 -1.0000e+00
        6  2    1    2  501    0 -1.1593156473e+02 -1.4766290515e+02 +4.5467427357e+02 5.2160793258e+02 1.7349835455e+02 0.0000e+00 0.0000e+00
       24  2    3    3    0    0 -1.7267900826e+01 -1.2508212800e+02 +3.1940883254e+02 3.5260130665e+02 7.9761895711e+01 0.0000e+00 0.0000e+00
       -6  2    1    2    0  502 +1.0096469305e+02 +1.0542652866e+02 +6.6729180927e+02 7.0478645782e+02 1.7360002944e+02 0.0000e+00 0.0000e+00
      -24  2    5    5    0    0 +9.2457135707e+01 +8.4907335316e+01 +6.6538307516e+02 6.8200161432e+02 8.1449295263e+01 0.0000e+00 0.0000e+00
        5  1    3    3  501    0 -9.8663663900e+01 -2.2580777144e+01 +1.3526544103e+02 1.6900662593e+02 4.7000000000e+00 0.0000e+00 -1.0000e+00
      -13  1    4    4    0    0 -3.6159949804e+01 -1.1928121275e+02 +3.0017573097e+02 3.2502464390e+02 0.0000000000e+00 0.0000e+00 1.0000e+00
       14  1    4    4    0    0 +1.8892048978e+01 -5.8009152535e+00 +1.9233101570e+01 2.7576662749e+01 0.0000000000e+00 0.0000e+00 -1.0000e+00
       -5  1    5    5    0  502 +8.5075573402e+00 +2.0519193346e+01 +1.9087341152e+00 2.2784843501e+01 4.7000000000e+00 0.0000e+00 1.0000e+00
       13  1    6    6    0    0 -1.3935648156e+01 +1.0447654996e+01 +4.6831379675e+01 4.9965327045e+01 0.0000000000e+00 0.0000e+00 -1.0000e+00
      -14  1    6    6    0    0 +1.0639278386e+02 +7.4459680320e+01 +6.1855169548e+02 6.3203628728e+02 0.0000000000e+00 0.0000e+00 1.0000e+00
       21  1    1    2  504  503 +1.4966871679e+01 +4.2236376484e+01 +1.2354612189e+02 1.3142131859e+02 0.0000000000e+00 0.0000e+00 1.0000e+00
<mgrwt>
<rscale>  3 0.24308712E+03</rscale>
<asrwt>0</asrwt>
<pdfrwt beam="1">  1       21 0.20025597E+00 0.24310528E+03</pdfrwt>
<pdfrwt beam="2">  1       21 0.86387321E-02 0.24310528E+03</pdfrwt>
<totfact> 0.13525268E+04</totfact>
</mgrwt>
</event>
<event>
13      2 +1.4674046e+01 1.82328100e+02 7.54677100e-03 1.16568400e-01
       21 -1    0    0  504  502 +0.0000000000e+00 +0.0000000000e+00 +1.3310408689e+02 1.3310408689e+02 0.0000000000e+00 0.0000e+00 1.0000e+00
       21 -1    0    0  502  503 -0.0000000000e+00 -0.0000000000e+00 -1.8369914228e+03 1.8369914228e+03 0.0000000000e+00 0.0000e+00 1.0000e+00
       -6  2    1    2    0  503 +3.8875916032e+01 -4.0411346231e+01 -1.6599944934e+03 1.6699271978e+03 1.7300495396e+02 0.0000e+00 0.0000e+00
      -24  2    3    3    0    0 -2.5268674543e+01 -6.1378344733e+01 -7.5037720696e+02 7.5779790800e+02 8.2376632179e+01 0.0000e+00 0.0000e+00
        6  2    1    2  501    0 +2.9057919446e+01 +9.8050936123e+01 -5.8847351582e+01 2.0983024869e+02 1.7351476514e+02 0.0000e+00 0.0000e+00
       24  2    5    5    0    0 +1.2309269561e+01 +1.3795031596e+02 -4.3267102380e+01 1.6359917743e+02 7.5570105971e+01 0.0000e+00 0.0000e+00
        5  1    5    5  501    0 +1.6748649885e+01 -3.9899379842e+01 -1.5580249201e+01 4.6231071260e+01 4.7000000000e+00 0.0000e+00 -1.0000e+00
      -13  1    6    6    0    0 -5.3478905601e+00 +8.9011145995e+01 +9.2798908353e+00 8.9653223137e+01 0.0000000000e+00 0.0000e+00 1.0000e+00
       14  1    6    6    0    0 +1.7657160121e+01 +4.8939169969e+01 -5.2546993215e+01 7.3945954296e+01 0.0000000000e+00 0.0000e+00 -1.0000e+00
       -5  1    3    3    0  503 +6.4144590575e+01 +2.0966998502e+01 -9.0961728645e+02 9.1212928981e+02 4.7000000000e+00 0.0000e+00 1.0000e+00
       13  1    4    4    0    0 +2.5323758284e+01 -1.0269298572e+01 -1.0782686332e+02 1.1123571225e+02 0.0000000000e+00 0.0000e+00 -1.0000e+00
      -14  1    4    4    0    0 -5.0592432827e+01 -5.1109046160e+01 -6.4255034364e+02 6.4656219575e+02 0.0000000000e+00 0.0000e+00 1.0000e+00
       21  1    1    2  504  501 -6.7933835478e+01 -5.7639589892e+01 +1.4954509041e+01 9.0338063220e+01 0.0000000000e+00 0.0000e+00 1.0000e+00
<mgrwt>
<rscale>  3 0.18220674E+03</rscale>
<asrwt>0</asrwt>
<pdfrwt beam="1">  1       21 0.20477555E-01 0.18232814E+03</pdfrwt>
<pdfrwt beam="2">  1       21 0.28261402E+00 0.18232814E+03</pdfrwt>
<totfact> 0.96279346E+02</totfact>
</mgrwt>
</event>
<event>
13      2 +1.4674046e+01 1.88362300e+02 7.54677100e-03 1.16049200e-01
       21 -1    0    0  501  502 +0.0000000000e+00 +0.0000000000e+00 +6.4865442201e+02 6.4865442201e+02 0.0000000000e+00 0.0000e+00 1.0000e+00
       21 -1    0    0  504  503 -0.0000000000e+00 -0.0000000000e+00 -6.7008706663e+02 6.7008706663e+02 0.0000000000e+00 0.0000e+00 -1.0000e+00
       -6  2    1    2    0  503 +2.3033739608e+01 +1.0253270185e+02 -1.9034076052e+02 2.7896985710e+02 1.7478863791e+02 0.0000e+00 0.0000e+00
      -24  2    3    3    0    0 +5.0867108677e+01 +7.0735579634e+01 -4.3979881641e+01 1.2655807841e+02 8.0571286762e+01 0.0000e+00 0.0000e+00
        6  2    1    2  501    0 -3.3608575449e+01 -4.6452626671e+01 -4.1506288223e+02 4.5301876309e+02 1.7222491294e+02 0.0000e+00 0.0000e+00
       24  2    5    5    0    0 -2.4736389100e+01 +1.1020448369e+01 -8.9924234269e+01 1.2268695953e+02 7.8945442567e+01 0.0000e+00 0.0000e+00
        5  1    5    5  501    0 -8.8721863493e+00 -5.7473075040e+01 -3.2513864796e+02 3.3033180355e+02 4.7000000000e+00 0.0000e+00 -1.0000e+00
      -13  1    6    6    0    0 -4.4428045105e+01 +9.2520008296e+00 -9.2221965073e+01 1.0278298280e+02 0.0000000000e+00 0.0000e+00 1.0000e+00
       14  1    6    6    0    0 +1.9691656005e+01 +1.7684475389e+00 +2.2977308034e+00 1.9903976732e+01 0.0000000000e+00 0.0000e+00 -1.0000e+00
       -5  1    3    3    0  503 -2.7833369069e+01 +3.1797122217e+01 -1.4636087888e+02 1.5241177869e+02 4.7000000000e+00 0.0000e+00 1.0000e+00
       13  1    4    4    0    0 +5.2400177621e+00 -1.2147923069e+01 +1.0934624381e+01 1.7163794202e+01 0.0000000000e+00 0.0000e+00 -1.0000e+00
      -14  1    4    4    0    0 +4.5627090915e+01 +8.2883502704e+01 -5.4914506023e+01 1.0939428421e+02 0.0000000000e+00 0.0000e+00 1.0000e+00
       21  1    1    2  504  502 +1.0574835842e+01 -5.6080075180e+01 +5.8397099813e+02 5.8675286845e+02 0.0000000000e+00 0.0000e+00 1.0000e+00
<mgrwt>
<rscale>  3 0.18776535E+03</rscale>
<asrwt>0</asrwt>
<pdfrwt beam="1">  1       21 0.99792988E-01 0.18836231E+03</pdfrwt>
<pdfrwt beam="2">  1       21 0.10309032E+00 0.18836231E+03</pdfrwt>
<totfact> 0.63284814E+02</totfact>
</mgrwt>
</event>
<event>
14      3 +1.4674046e+01 1.76647100e+02 7.54677100e-03 1.17144200e-01
       21 -1    0    0  501  503 +0.0000000000e+00 +0.0000000000e+00 +3.7593704223e+02 3.7593704223e+02 0.0000000000e+00 0.0000e+00 1.0000e+00
        2 -1    0    0  504    0 -0.0000000000e+00 -0.0000000000e+00 -1.3639431338e+03 1.3639431338e+03 0.0000000000e+00 0.0000e+00 -1.0000e+00
       -6  2    1    2    0  502 +2.7611700242e+01 +3.2226798354e+01 -3.2904328643e+02 3.7481373423e+02 1.7439861956e+02 0.0000e+00 0.0000e+00
      -24  2    3    3    0    0 -1.7959494499e+01 +7.1996025462e+01 -2.6492480918e+02 2.8654372608e+02 8.0101069344e+01 0.0000e+00 0.0000e+00
        6  2    1    2  501    0 -7.1391640393e+00 -2.3730772228e+01 +5.7341141685e+01 1.8389434707e+02 1.7295955349e+02 0.0000e+00 0.0000e+00
       24  2    5    5    0    0 -2.3358782028e+00 -6.7711952341e+01 +1.3666253613e+01 1.2154852438e+02 9.9984561181e+01 0.0000e+00 0.0000e+00
        5  1    5    5  501    0 -4.8032858365e+00 +4.3981180113e+01 +4.3674888072e+01 6.2345822692e+01 4.7000000000e+00 0.0000e+00 -1.0000e+00
      -13  1    6    6    0    0 -4.9515312437e+01 -4.9863047954e+01 +6.0122220321e+00 7.0528267601e+01 0.0000000000e+00 0.0000e+00 1.0000e+00
       14  1    6    6    0    0 +4.7179434234e+01 -1.7848904387e+01 +7.6540315806e+00 5.1020256780e+01 0.0000000000e+00 0.0000e+00 -1.0000e+00
       -5  1    3    3    0  502 +4.5571194741e+01 -3.9769227109e+01 -6.4118477244e+01 8.8270008151e+01 4.7000000000e+00 0.0000e+00 1.0000e+00
       13  1    4    4    0    0 -4.3660910423e+01 +1.9288501783e+01 -1.5174217378e+02 1.5907233796e+02 0.0000000000e+00 0.0000e+00 -1.0000e+00
      -14  1    4    4    0    0 +2.5701415925e+01 +5.2707523679e+01 -1.1318263541e+02 1.2747138812e+02 0.0000000000e+00 0.0000e+00 1.0000e+00
       21  1    1    2  504  503 -1.7379691377e+01 +1.1454766708e+01 +2.3186039095e+02 2.3279283976e+02 0.0000000000e+00 0.0000e+00 1.0000e+00
        2  1    1    2  502    0 -3.0928448258e+00 -1.9950792835e+01 -9.4816433779e+02 9.4837925498e+02 0.0000000000e+00 0.0000e+00 -1.0000e+00
<mgrwt>
<rscale>  4 0.17629084E+03</rscale>
<asrwt>0</asrwt>
<pdfrwt beam="1">  1       21 0.57836468E-01 0.17664706E+03</pdfrwt>
<pdfrwt beam="2">  1        2 0.20983741E+00 0.17664706E+03</pdfrwt>
<totfact> 0.58853145E+02</totfact>
</mgrwt>
</event>
<event>
12      1 +1.4674046e+01 2.88924400e+02 7.54677100e-03 1.09093800e-01
       21 -1    0    0  503  502 +0.0000000000e+00 +0.0000000000e+00 +3.1304148939e+02 3.1304148939e+02 0.0000000000e+00 0.0000e+00 -1.0000e+00
       21 -1    0    0  501  503 -0.0000000000e+00 -0.0000000000e+00 -5.3697573216e+02 5.3697573216e+02 0.0000000000e+00 0.0000e+00 1.0000e+00
        6  2    1    2  501    0 +2.2980760473e+02 -2.6490547712e+01 -4.1359365518e+02 5.0440470898e+02 1.7277475083e+02 0.0000e+00 0.0000e+00
       24  2    3    3    0    0 +2.0089501274e+02 -5.8395439668e+01 -4.0066666944e+02 4.5920452019e+02 8.1031955684e+01 0.0000e+00 0.0000e+00
       -6  2    1    2    0  502 -2.2980760473e+02 +2.6490547712e+01 +1.8965941240e+02 3.4561251257e+02 1.7310121843e+02 0.0000e+00 0.0000e+00
      -24  2    5    5    0    0 -2.4314630478e+02 +7.2693375020e-01 +1.5002748793e+02 2.9627222314e+02 7.8411281790e+01 0.0000e+00 0.0000e+00
        5  1    3    3  501    0 +2.8912591988e+01 +3.1904891957e+01 -1.2926985738e+01 4.5200188788e+01 4.7000000000e+00 0.0000e+00 -1.0000e+00
      -13  1    4    4    0    0 +2.0369366362e+02 -6.7682539859e+01 -3.8239795717e+02 4.3852050402e+02 0.0000000000e+00 0.0000e+00 1.0000e+00
       14  1    4    4    0    0 -2.7986508781e+00 +9.2871001909e+00 -1.8268712274e+01 2.0684016169e+01 0.0000000000e+00 0.0000e+00 -1.0000e+00
       -5  1    5    5    0  502 +1.3338700049e+01 +2.5763613961e+01 +3.9631924473e+01 4.9340289427e+01 4.7000000000e+00 0.0000e+00 1.0000e+00
       13  1    6    6    0    0 -6.7757233640e+01 -3.5230415951e+01 +4.8095112261e+01 9.0251674455e+01 0.0000000000e+00 0.0000e+00 -1.0000e+00
      -14  1    6    6    0    0 -1.7538907114e+02 +3.5957349701e+01 +1.0193237567e+02 2.0602054869e+02 0.0000000000e+00 0.0000e+00 1.0000e+00
<mgrwt>
<rscale>  2 0.28887553E+03</rscale>
<asrwt>0</asrwt>
<pdfrwt beam="1">  1       21 0.48160229E-01 0.28892441E+03</pdfrwt>
<pdfrwt beam="2">  1       21 0.82611651E-01 0.28892441E+03</pdfrwt>
<totfact> 0.49474875E+03</totfact>
</mgrwt>
</event>
<event>
13      2 +1.4674046e+01 2.23387200e+02 7.54677100e-03 1.13246900e-01
       21 -1    0    0  504  502 +0.0000000000e+00 +0.0000000000e+00 +1.6326011232e+03 1.6326011232e+03 0.0000000000e+00 0.0000e+00 -1.0000e+00
       21 -1    0    0  501  503 -0.0000000000e+00 -0.0000000000e+00 -1.0328366571e+03 1.0328366571e+03 0.0000000000e+00 0.0000e+00 -1.0000e+00
        6  2    1    2  501    0 +9.1894049502e+01 +7.0199201684e+01 -5.7708036020e+02 6.1098711937e+02 1.6404594986e+02 0.0000e+00 0.0000e+00
       24  2    3    3    0    0 +4.7011517490e+01 -1.8057197259e+01 -2.2436710972e+02 2.4460977197e+02 8.3409804379e+01 0.0000e+00 0.0000e+00
       -6  2    1    2    0  502 -1.6659409078e+02 -1.2887479567e+02 -3.9515264884e+02 4.7958591004e+02 1.7174028411e+02 0.0000e+00 0.0000e+00
      -24  2    5    5    0    0 -3.0793736278e+01 -3.9676364083e+01 -2.2636354910e+02 2.4525719505e+02 7.9926011414e+01 0.0000e+00 0.0000e+00
        5  1    3    3  501    0 +4.4882532012e+01 +8.8256398943e+01 -3.5271325047e+02 3.6637734741e+02 4.7000000000e+00 0.0000e+00 -1.0000e+00
      -13  1    4    4    0    0 +2.5236834353e+01 +2.6052571679e+01 -4.0919414721e+01 5.4681192382e+01 0.0000000000e+00 0.0000e+00 1.0000e+00
       14  1    4    4    0    0 +2.1774683137e+01 -4.4109768938e+01 -1.8344769500e+02 1.8992857959e+02 0.0000000000e+00 0.0000e+00 -1.0000e+00
       -5  1    5    5    0  502 -1.3580035450e+02 -8.9198431591e+01 -1.6878909973e+02 2.3432871499e+02 4.7000000000e+00 0.0000e+00 1.0000e+00
       13  1    6    6    0    0 -4.4632206186e+01 -5.5488899953e+01 -1.4983552925e+02 1.6589676812e+02 0.0000000000e+00 0.0000e+00 -1.0000e+00
      -14  1    6    6    0    0 +1.3838469908e+01 +1.5812535870e+01 -7.6528019847e+01 7.9360426925e+01 0.0000000000e+00 0.0000e+00 1.0000e+00
       21  1    1    2  504  503 +7.4700041276e+01 +5.8675593991e+01 +1.5719974752e+03 1.5748647508e+03 0.0000000000e+00 0.0000e+00 -1.0000e+00
<mgrwt>
<rscale>  3 0.22190766E+03</rscale>
<asrwt>0</asrwt>
<pdfrwt beam="1">  1       21 0.25116940E+00 0.22338723E+03</pdfrwt>
<pdfrwt beam="2">  1       21 0.15889795E+00 0.22338723E+03</pdfrwt>
<totfact> 0.15916451E+01</totfact>
</mgrwt>
</event>
<event>
14      3 +1.4674046e+01 3.28494800e+02 7.54677100e-03 1.07182700e-01
       21 -1    0    0  505  502 +0.0000000000e+00 +0.0000000000e+00 +5.0967052142e+02 5.0967052142e+02 0.0000000000e+00 0.0000e+00 -1.0000e+00
       21 -1    0    0  501  503 -0.0000000000e+00 -0.0000000000e+00 -4.1471748943e+02 4.1471748943e+02 0.0000000000e+00 0.0000e+00 -1.0000e+00
        6  2    1    2  501    0 +6.6573453994e+01 -2.7279647674e+02 -2.1570795665e+02 3.9192707535e+02 1.6800883111e+02 0.0000e+00 0.0000e+00
       24  2    3    3    0    0 -1.0206228638e+01 -5.1177981932e+01 -7.0504576157e+01 1.1603581305e+02 7.5960922282e+01 0.0000e+00 0.0000e+00
       -6  2    1    2    0  502 -6.0450443137e+01 +2.7925953703e+02 +1.4879243408e+02 3.6350953193e+02 1.6840381904e+02 0.0000e+00 0.0000e+00
      -24  2    5    5    0    0 -8.5803897009e+01 +2.1563086959e+02 +1.6133149057e+02 2.9371896751e+02 7.9899945965e+01 0.0000e+00 0.0000e+00
        5  1    3    3  501    0 +7.6779682632e+01 -2.2161849480e+02 -1.4520338050e+02 2.7589126230e+02 4.7000000000e+00 0.0000e+00 -1.0000e+00
      -13  1    4    4    0    0 -3.8505441181e+01 -4.3682126103e+01 -2.8486562074e+01 6.4825005671e+01 0.0000000000e+00 0.0000e+00 1.0000e+00
       14  1    4    4    0    0 +2.8299212543e+01 -7.4958558294e+00 -4.2018014083e+01 5.1210807382e+01 0.0000000000e+00 0.0000e+00 -1.0000e+00
       -5  1    5    5    0  502 +2.5353453872e+01 +6.3628667443e+01 -1.2539056497e+01 6.9790564417e+01 4.7000000000e+00 0.0000e+00 1.0000e+00
       13  1    6    6    0    0 -2.5772731879e+01 +1.1224001291e+02 +1.2222259036e+02 1.6792979426e+02 0.0000000000e+00 0.0000e+00 -1.0000e+00
      -14  1    6    6    0    0 -6.0031165129e+01 +1.0339085668e+02 +3.9108900214e+01 1.2578917325e+02 0.0000000000e+00 0.0000e+00 1.0000e+00
       21  1    1    2  504  503 -4.9861040816e+00 +2.0663060385e+01 +7.1099670033e+01 7.4209072068e+01 0.0000000000e+00 0.0000e+00 1.0000e+00
       21  1    1    2  505  504 -1.1369067756e+00 -2.7126120680e+01 +9.0768884526e+01 9.4742331501e+01 0.0000000000e+00 0.0000e+00 1.0000e+00
<mgrwt>
<rscale>  4 0.32844418E+03</rscale>
<asrwt>0</asrwt>
<pdfrwt beam="1">  1       21 0.78410850E-01 0.32849477E+03</pdfrwt>
<pdfrwt beam="2">  1       21 0.63802691E-01 0.32849477E+03</pdfrwt>
<totfact> 0.29890610E+03</totfact>
</mgrwt>
</event>
<event>
13      2 +1.4674046e+01 2.59427400e+02 7.54677100e-03 1.12182800e-01
        1 -1    0    0  501    0 -0.0000000000e+00 +0.0000000000e+00 +7.3587855172e+02 7.3587855172e+02 0.0000000000e+00 0.0000e+00 1.0000e+00
       21 -1    0    0  502  503 +0.0000000000e+00 -0.0000000000e+00 -2.4770023345e+02 2.4770023345e+02 0.0000000000e+00 0.0000e+00 1.0000e+00
        6  2    1    2  501    0 -1.3298016607e+02 +1.1458465652e+02 -6.9152761913e+01 2.5658686594e+02 1.7390039453e+02 0.0000e+00 0.0000e+00
       24  2    3    3    0    0 -6.8702142815e+01 +8.4467227876e+01 +2.4777156832e+01 1.3875799250e+02 8.2372179581e+01 0.0000e+00 0.0000e+00
       -6  2    1    2    0  503 +2.0622366135e+01 +4.4737047935e+01 +5.5998370016e+01 1.8908656789e+02 1.7375622944e+02 0.0000e+00 0.0000e+00
      -24  2    5    5    0    0 -4.5898293197e+01 +5.0989295915e+01 +6.1505237055e+01 1.2188162531e+02 7.9785178987e+01 0.0000e+00 0.0000e+00
        5  1    3    3  501    0 -6.4278023256e+01 +3.0117428644e+01 -9.3929918745e+01 1.1782887345e+02 4.7000000000e+00 0.0000e+00 -1.0000e+00
      -13  1    4    4    0    0 -2.5466394679e+01 +3.8970924199e+01 +5.2479849577e+01 7.0152724840e+01 0.0000000000e+00 0.0000e+00 1.0000e+00
       14  1    4    4    0    0 -4.3235748136e+01 +4.5496303677e+01 -2.7702692744e+01 6.8605267658e+01 0.0000000000e+00 0.0000e+00 -1.0000e+00
       -5  1    5    5    0  503 +6.6520659332e+01 -6.2522479796e+00 -5.5068670385e+00 6.7204942581e+01 4.7000000000e+00 0.0000e+00 1.0000e+00
       13  1    6    6    0    0 -1.6645168048e+01 +6.7752383514e+01 +3.0740110518e+01 7.6239107326e+01 0.0000000000e+00 0.0000e+00 -1.0000e+00
      -14  1    6    6    0    0 -2.9253125149e+01 -1.6763087599e+01 +3.0765126536e+01 4.5642517981e+01 0.0000000000e+00 0.0000e+00 1.0000e+00
        1  1    1    2  502    0 +1.1235779994e+02 -1.5932170446e+02 +5.0133271016e+02 5.3790535134e+02 0.0000000000e+00 0.0000e+00 1.0000e+00
<mgrwt>
<rscale>  3 0.23697031E+03</rscale>
<asrwt>0</asrwt>
<pdfrwt beam="2">  1       21 0.38107728E-01 0.25942742E+03</pdfrwt>
<pdfrwt beam="1">  1        1 0.11321208E+00 0.25942742E+03</pdfrwt>
<totfact> 0.18854737E+03</totfact>
</mgrwt>
</event>
<event>
12      2 +1.4674046e+01 3.49681500e+02 7.54677100e-03 1.06565200e-01
       21 -1    0    0  503  502 +0.0000000000e+00 +0.0000000000e+00 +2.3781099076e+03 2.3781099076e+03 0.0000000000e+00 0.0000e+00 1.0000e+00
       21 -1    0    0  501  503 -0.0000000000e+00 -0.0000000000e+00 -7.5321534936e+01 7.5321534936e+01 0.0000000000e+00 0.0000e+00 -1.0000e+00
        6  2    1    2  501    0 +2.6174378781e+02 -1.8916667805e+01 +7.2778796770e+02 7.9292132274e+02 1.7372750886e+02 0.0000e+00 0.0000e+00
       24  2    3    3    0    0 +2.2043840900e+02 -7.3431058004e+01 +5.5069825127e+02 6.0302448042e+02 7.9904615534e+01 0.0000e+00 0.0000e+00
      -24  2    1    2    0    0 -1.7324583777e+02 +1.1314329387e+00 +2.2308917010e+02 2.9390362159e+02 8.1210593667e+01 0.0000e+00 0.0000e+00
        5  1    3    3  501    0 +4.1305378809e+01 +5.4514390199e+01 +1.7708971643e+02 1.8989684232e+02 4.7000000000e+00 0.0000e+00 -1.0000e+00
      -13  1    4    4    0    0 +6.3664199354e+01 -5.0053367875e+01 +2.5459193060e+02 2.6716197529e+02 0.0000000000e+00 0.0000e+00 1.0000e+00
       14  1    4    4    0    0 +1.5677420965e+02 -2.3377690129e+01 +2.9610632067e+02 3.3586250513e+02 0.0000000000e+00 0.0000e+00 -1.0000e+00
       -5  1    1    2    0  504 -1.0336950257e+02 +5.4935088273e+01 +4.9167012777e+02 5.0543518133e+02 4.7000000000e+00 0.0000e+00 1.0000e+00
       13  1    5    5    0    0 -1.0389426840e+01 -2.0890916686e-01 -6.6179469107e+00 1.2319945390e+01 0.0000000000e+00 0.0000e+00 -1.0000e+00
      -14  1    5    5    0    0 -1.6285641093e+02 +1.3403421056e+00 +2.2970711701e+02 2.8158367620e+02 0.0000000000e+00 0.0000e+00 1.0000e+00
       21  1    1    2  504  502 +1.4871552534e+01 -3.7149853406e+01 +8.6024110710e+02 8.6117131688e+02 0.0000000000e+00 0.0000e+00 1.0000e+00
<mgrwt>
<rscale>  3 0.34269917E+03</rscale>
<asrwt>0</asrwt>
<pdfrwt beam="1">  1       21 0.36586301E+00 0.34968154E+03</pdfrwt>
<pdfrwt beam="2">  1       21 0.11587930E-01 0.34968154E+03</pdfrwt>
<totfact> 0.74060723E+02</totfact>
</mgrwt>
</event>
<event>
13      2 +1.4674046e+01 1.77615000e+02 7.54677100e-03 1.17047100e-01
       21 -1    0    0  501  502 +0.0000000000e+00 +0.0000000000e+00 +8.3401563588e+02 8.3401563588e+02 0.0000000000e+00 0.0000e+00 1.0000e+00
       21 -1    0    0  504  503 -0.0000000000e+00 -0.0000000000e+00 -5.8566620080e+01 5.8566620080e+01 0.0000000000e+00 0.0000e+00 1.0000e+00
       -6  2    1    2    0  503 +4.8548978666e+01 +4.3612323336e+01 +2.6147848940e+02 3.2098154320e+02 1.7435341287e+02 0.0000e+00 0.0000e+00
      -24  2    3    3    0    0 +6.7829779848e+01 +8.4713096208e+01 +2.2562024754e+02 2.6293909034e+02 8.0344765997e+01 0.0000e+00 0.0000e+00
        6  2    1    2  501    0 +1.8576290690e+01 -9.2230324262e+00 +3.4152936379e+02 3.8338705843e+02 1.7295429263e+02 0.0000e+00 0.0000e+00
       24  2    5    5    0    0 -3.5225122377e+01 +2.9925737646e+01 +2.6988133306e+02 2.8549554422e+02 8.0841900131e+01 0.0000e+00 0.0000e+00
        5  1    5    5  501    0 +5.3801413067e+01 -3.9148770072e+01 +7.1648030731e+01 9.7891514207e+01 4.7000000000e+00 0.0000e+00 -1.0000e+00
      -13  1    6    6    0    0 -1.6117914863e+01 +5.4754821552e+01 +2.1345834574e+02 2.2095778563e+02 0.0000000000e+00 0.0000e+00 1.0000e+00
       14  1    6    6    0    0 -1.9107207514e+01 -2.4829083906e+01 +5.6422987319e+01 6.4537758596e+01 0.0000000000e+00 0.0000e+00 -1.0000e+00
       -5  1    3    3    0  503 -1.9280801182e+01 -4.1100772871e+01 +3.5858241861e+01 5.8042452862e+01 4.7000000000e+00 0.0000e+00 1.0000e+00
       13  1    4    4    0    0 +5.0379975987e+01 +4.1631873908e+01 +1.9881758660e+02 2.0928398803e+02 0.0000000000e+00 0.0000e+00 -1.0000e+00
      -14  1    4    4    0    0 +1.7449803861e+01 +4.3081222299e+01 +2.6802660939e+01 5.3655102302e+01 0.0000000000e+00 0.0000e+00 1.0000e+00
       21  1    1    2  504  502 -6.7125269356e+01 -3.4389290910e+01 +1.7244116261e+02 1.8821365434e+02 0.0000000000e+00 0.0000e+00 1.0000e+00
<mgrwt>
<rscale>  3 0.17727069E+03</rscale>
<asrwt>0</asrwt>
<pdfrwt beam="1">  1       21 0.12831009E+00 0.17761500E+03</pdfrwt>
<pdfrwt beam="2">  1       21 0.90102498E-02 0.17761500E+03</pdfrwt>
<totfact> 0.43913012E+04</totfact>
</mgrwt>
</event>
<event>
14      3 +1.4674046e+01 2.64336100e+02 7.54677100e-03 1.10459000e-01
       21 -1    0    0  505  502 +0.0000000000e+00 +0.0000000000e+00 +2.4719632361e+02 2.4719632361e+02 0.0000000000e+00 0.0000e+00 -1.0000e+00
       21 -1    0    0  501  503 -0.0000000000e+00 -0.0000000000e+00 -9.2008707717e+02 9.2008707717e+02 0.0000000000e+00 0.0000e+00 -1.0000e+00
        6  2    1    2  501    0 -2.6280136403e+02 +9.4182129481e+01 -2.2799751797e+01 3.2892251094e+02 1.7243943596e+02 0.0000e+00 0.0000e+00
       24  2    3    3    0    0 -7.5370746450e+01 +4.7664140508e+01 -5.7933992521e+01 1.3257927939e+02 7.9172584424e+01 0.0000e+00 0.0000e+00
       -6  2    1    2    0  504 +1.2361790266e+02 -3.3818040471e+01 -8.6343704150e+01 2.3173684496e+02 1.7268956062e+02 0.0000e+00 0.0000e+00
      -24  2    5    5    0    0 +8.3017534726e+01 -1.6764286963e+01 -1.2680269935e+02 1.7175150777e+02 7.9036089671e+01 0.0000e+00 0.0000e+00
        5  1    3    3  501    0 -1.8743061758e+02 +4.6517988973e+01 +3.5134240725e+01 1.9634323155e+02 4.7000000000e+00 0.0000e+00 -1.0000e+00
      -13  1    4    4    0    0 -7.6972524839e+00 -2.0625571896e+01 -1.8147148525e+01 2.8530350707e+01 0.0000000000e+00 0.0000e+00 1.0000e+00
       14  1    4    4    0    0 -6.7673493966e+01 +6.8289712404e+01 -3.9786843996e+01 1.0404892869e+02 0.0000000000e+00 0.0000e+00 -1.0000e+00
       -5  1    5    5    0  504 +4.0600367933e+01 -1.7053753508e+01 +4.0458995200e+01 5.9985337188e+01 4.7000000000e+00 0.0000e+00 1.0000e+00
       13  1    6    6    0    0 +2.8298264632e+01 -4.5656717285e+01 -5.3326053741e+01 7.5690128960e+01 0.0000000000e+00 0.0000e+00 -1.0000e+00
      -14  1    6    6    0    0 +5.4719270094e+01 +2.8892430322e+01 -7.3476645610e+01 9.6061378813e+01 0.0000000000e+00 0.0000e+00 1.0000e+00
       21  1    1    2  504  502 +1.7621657978e+01 -1.7054904636e+01 +3.5995682305e+00 2.4786074588e+01 0.0000000000e+00 0.0000e+00 -1.0000e+00
       21  1    1    2  505  503 +1.2156180339e+02 -4.3309184374e+01 -5.6734686584e+02 5.8183797029e+02 0.0000000000e+00 0.0000e+00 -1.0000e+00
<mgrwt>
<rscale>  4 0.26429527E+03</rscale>
<asrwt>0</asrwt>
<pdfrwt beam="1">  1       21 0.38030204E-01 0.26433612E+03</pdfrwt>
<pdfrwt beam="2">  1       21 0.14155186E+00 0.26433612E+03</pdfrwt>
<totfact> 0.21878867E+03</totfact>
</mgrwt>
</event>
<event>
14      3 +1.4674046e+01 1.92898800e+02 7.54677100e-03 1.15591100e-01
        1 -1    0    0  503    0 -0.0000000000e+00 +0.0000000000e+00 +3.1500772799e+03 3.1500772799e+03 0.0000000000e+00 0.0000e+00 1.0000e+00
       21 -1    0    0  501  503 +0.0000000000e+00 -0.0000000000e+00 -2.7384580238e+01 2.7384580238e+01 0.0000000000e+00 0.0000e+00 1.0000e+00
        6  2    1    2  501    0 +4.6528577578e+01 +6.3458764828e+01 +7.4963831229e+02 7.7338464803e+02 1.7313084993e+02 0.0000e+00 0.0000e+00
       24  2    3    3    0    0 +5.2882761214e+01 -1.8501884084e+01 +5.2422473171e+02 5.3340278220e+02 8.1043522706e+01 0.0000e+00 0.0000e+00
       -6  2    1    2    0  502 -1.3547404481e+02 +4.7482055893e+01 +1.0741051201e+03 1.0973682312e+03 1.7293774417e+02 0.0000e+00 0.0000e+00
      -24  2    5    5    0    0 -3.8557945218e+01 +1.0416646280e+01 +7.1811722455e+02 7.2363572674e+02 7.9756474083e+01 0.0000e+00 0.0000e+00
        5  1    3    3  501    0 -6.3541836358e+00 +8.1960648911e+01 +2.2541358058e+02 2.3998186583e+02 4.7000000000e+00 0.0000e+00 -1.0000e+00
      -13  1    4    4    0    0 +1.7709326558e+01 -1.4442225521e+01 +2.9035827707e+01 3.6949660564e+01 0.0000000000e+00 0.0000e+00 1.0000e+00
       14  1    4    4    0    0 +3.5173434656e+01 -4.0596585624e+00 +4.9518890401e+02 4.9645312164e+02 0.0000000000e+00 0.0000e+00 -1.0000e+00
       -5  1    5    5    0  504 -3.5758875169e+01 +3.8291899343e+01 +1.6113899718e+02 1.6950761966e+02 4.7000000000e+00 0.0000e+00 1.0000e+00
       13  1    6    6    0    0 -3.0542213746e+01 +2.4233513763e+01 +1.4082225931e+02 1.4611980950e+02 0.0000000000e+00 0.0000e+00 -1.0000e+00
      -14  1    6    6    0    0 -8.0157314721e+00 -1.3816867484e+01 +5.7729496524e+02 5.7751591724e+02 0.0000000000e+00 0.0000e+00 1.0000e+00
       21  1    5    5  504  502 -6.1157224424e+01 -1.2264897304e+00 +1.9484889838e+02 2.0422488481e+02 0.0000000000e+00 0.0000e+00 1.0000e+00
        1  1    1    2  502    0 +8.8945467232e+01 -1.1094082072e+02 +1.2989492673e+03 1.3067089809e+03 0.0000000000e+00 0.0000e+00 1.0000e+00
<mgrwt>
<rscale>  4 0.19285546E+03</rscale>
<asrwt>0</asrwt>
<pdfrwt beam="2">  1       21 0.42130148E-02 0.19289879E+03</pdfrwt>
<pdfrwt beam="1">  1        1 0.48462699E+00 0.19289879E+03</pdfrwt>
<totfact> 0.23699151E+03</totfact>
</mgrwt>
</event>
<event>
14      3 +1.4674046e+01 2.68777500e+02 7.54677100e-03 1.11779500e-01
       21 -1    0    0  503  502 +0.0000000000e+00 +0.0000000000e+00 +8.9316106998e+02 8.9316106998e+02 0.0000000000e+00 0.0000e+00 -1.0000e+00
       21 -1    0    0  505  503 -0.0000000000e+00 -0.0000000000e+00 -5.7410160697e+02 5.7410160697e+02 0.0000000000e+00 0.0000e+00 -1.0000e+00
       -6  2    1    2    0  502 +1.0007507731e+02 +1.8051044339e+02 +7.9807343981e+02 8.4288490596e+02 1.7588265435e+02 0.0000e+00 0.0000e+00
      -24  2    3    3    0    0 +4.2926041130e+01 +1.9148579444e+02 +6.5198067093e+02 6.8555831004e+02 8.0012166049e+01 0.0000e+00 0.0000e+00
        6  2    1    2  501    0 -3.9734477949e+01 -3.8861768917e+00 -2.6791059869e+02 3.2074464389e+02 1.7177632719e+02 0.0000e+00 0.0000e+00
       24  2    5    5    0    0 -5.3327261280e+01 +3.2642632876e+01 -1.2894618888e+02 1.7634133750e+02 1.0276093327e+02 0.0000e+00 0.0000e+00
        5  1    5    5  501    0 +1.3592783331e+01 -3.6528809767e+01 -1.3896440981e+02 1.4440330639e+02 4.7000000000e+00 0.0000e+00 -1.0000e+00
      -13  1    6    6    0    0 -4.2510868360e+01 +6.9640811197e+01 -9.1630860133e+01 1.2269160950e+02 0.0000000000e+00 0.0000e+00 1.0000e+00
       14  1    6    6    0    0 -1.0816392921e+01 -3.6998178321e+01 -3.7315328744e+01 5.3649727997e+01 0.0000000000e+00 0.0000e+00 -1.0000e+00
       -5  1    3    3    0  502 +5.7149036182e+01 -1.0975351046e+01 +1.4609276888e+02 1.5732659593e+02 4.7000000000e+00 0.0000e+00 1.0000e+00
       13  1    4    4    0    0 +1.7518317457e+01 +5.4718168140e+01 +3.2772557020e+02 3.3272363717e+02 0.0000000000e+00 0.0000e+00 -1.0000e+00
      -14  1    4    4    0    0 +2.5407723674e+01 +1.3676762630e+02 +3.2425510073e+02 3.5283467287e+02 0.0000000000e+00 0.0000e+00 1.0000e+00
       21  1    1    2  504  501 -3.8292529398e+01 -1.7971161688e+02 -1.4556900309e+02 2.3442038673e+02 0.0000000000e+00 0.0000e+00 -1.0000e+00
       21  1    1    2  505  504 -2.2048069965e+01 +3.0873503839e+00 -6.5534375017e+01 6.9212740377e+01 0.0000000000e+00 0.0000e+00 -1.0000e+00
<mgrwt>
<rscale>  4 0.24302336E+03</rscale>
<asrwt>0</asrwt>
<pdfrwt beam="1">  1       21 0.13740940E+00 0.26877754E+03</pdfrwt>
<pdfrwt beam="2">  1       21 0.88323324E-01 0.26877754E+03</pdfrwt>
<totfact> 0.38197693E+02</totfact>
</mgrwt>
</event>
<event>
13      3 +1.4674046e+01 2.55118500e+02 7.54677100e-03 1.12007000e-01
       21 -1    0    0  505  502 +0.0000000000e+00 +0.0000000000e+00 +2.6332421705e+02 2.6332421705e+02 0.0000000000e+00 0.0000e+00 -1.0000e+00
       21 -1    0    0  504  503 -0.0000000000e+00 -0.0000000000e+00 -4.4832528302e+02 4.4832528302e+02 0.0000000000e+00 0.0000e+00 -1.0000e+00
       -6  2    1    2    0  503 -4.4670025811e+01 +8.6970031703e+01 -1.0663287315e+02 2.2603984380e+02 1.7367856438e+02 0.0000e+00 0.0000e+00
      -24  2    3    3    0    0 -2.6717710249e+01 +1.1588238220e+02 -3.6962523763e+01 1.4835936214e+02 8.0633179445e+01 0.0000e+00 0.0000e+00
       24  2    1    2    0    0 +2.5155990521e+01 +8.3309169517e+01 -4.7723769645e+01 1.1498503404e+02 5.8058231787e+01 0.0000e+00 0.0000e+00
        5  1    1    2  501    0 +7.6330960651e+01 -1.1271984773e+02 +4.6516829028e+01 1.4393778173e+02 4.7000000000e+00 0.0000e+00 -1.0000e+00
      -13  1    5    5    0    0 +3.2472587425e+00 +8.0001582461e+01 -4.6943546558e+01 9.2814300886e+01 0.0000000000e+00 0.0000e+00 1.0000e+00
       14  1    5    5    0    0 +2.1908731779e+01 +3.3075870562e+00 -7.8022308735e-01 2.2170733149e+01 0.0000000000e+00 0.0000e+00 -1.0000e+00
       -5  1    3    3    0  503 -1.7952315561e+01 -2.8912350499e+01 -6.9670349392e+01 7.7680481652e+01 4.7000000000e+00 0.0000e+00 1.0000e+00
       13  1    4    4    0    0 -2.7738064724e+01 +4.8717606932e-02 -4.9189136911e+00 2.8170877159e+01 0.0000000000e+00 0.0000e+00 -1.0000e+00
      -14  1    4    4    0    0 +1.0203544744e+00 +1.1583366459e+02 -3.2043610072e+01 1.2018848499e+02 0.0000000000e+00 0.0000e+00 1.0000e+00
       21  1    1    2  504  502 +2.2398037767e+01 +4.0236642521e+01 -8.9071075420e+01 1.0027121209e+02 0.0000000000e+00 0.0000e+00 -1.0000e+00
       21  1    1    2  505  501 -7.9214963128e+01 -9.7795996007e+01 +1.1909823224e+01 1.2641562842e+02 0.0000000000e+00 0.0000e+00 -1.0000e+00
<mgrwt>
<rscale>  4 0.23958449E+03</rscale>
<asrwt>0</asrwt>
<pdfrwt beam="1">  1       21 0.40511418E-01 0.25511853E+03</pdfrwt>
<pdfrwt beam="2">  1       21 0.68973121E-01 0.25511853E+03</pdfrwt>
<totfact> 0.10818448E+04</totfact>
</mgrwt>
</event>
<event>
13      2 +1.4674046e+01 2.89560100e+02 7.54677100e-03 1.10884900e-01
       21 -1    0    0  502  503 +0.0000000000e+00 +0.0000000000e+00 +8.4322162112e+01 8.4322162112e+01 0.0000000000e+00 0.0000e+00 1.0000e+00
        1 -1    0    0  501    0 -0.0000000000e+00 -0.0000000000e+00 -1.5366388664e+03 1.5366388664e+03 0.0000000000e+00 0.0000e+00 1.0000e+00
        6  2    1    2  501    0 -5.0268482467e+01 +1.0458981774e+01 -2.4513240247e+02 3.0423543826e+02 1.7272231045e+02 0.0000e+00 0.0000e+00
       24  2    3    3    0    0 -1.3998169106e-01 +1.6863046356e+01 -4.3353441311e+01 9.6171222698e+01 8.4172449617e+01 0.0000e+00 0.0000e+00
       -6  2    1    2    0  503 -1.2985827173e+02 +1.6727960638e+02 -6.0717766874e+02 6.6553851034e+02 1.7155509285e+02 0.0000e+00 0.0000e+00
      -24  2    5    5    0    0 -1.2756146990e+02 +5.9655592095e+01 -4.0529981943e+02 4.3670459722e+02 8.1315701654e+01 0.0000e+00 0.0000e+00
        5  1    3    3  501    0 -5.0128500776e+01 -6.4040645827e+00 -2.0177896116e+02 2.0806421556e+02 4.7000000000e+00 0.0000e+00 -1.0000e+00
      -13  1    4    4    0    0 -1.7762648421e+01 -3.0398497421e+01 -1.4633001178e+01 3.8127484153e+01 0.0000000000e+00 0.0000e+00 1.0000e+00
       14  1    4    4    0    0 +1.7622666730e+01 +4.7261543777e+01 -2.8720440132e+01 5.8043738545e+01 0.0000000000e+00 0.0000e+00 -1.0000e+00
       -5  1    5    5    0  503 -2.2968018255e+00 +1.0762401429e+02 -2.0187784931e+02 2.2883391312e+02 4.7000000000e+00 0.0000e+00 1.0000e+00
       13  1    6    6    0    0 -1.1469658609e+02 +6.5164860710e+01 -2.6813780036e+02 2.9883046349e+02 0.0000000000e+00 0.0000e+00 -1.0000e+00
      -14  1    6    6    0    0 -1.2864883819e+01 -5.5092686149e+00 -1.3716201907e+02 1.3787413373e+02 0.0000000000e+00 0.0000e+00 1.0000e+00
        1  1    1    2  502    0 +1.8012675420e+02 -1.7773858816e+02 -6.0000663307e+02 6.5118707990e+02 0.0000000000e+00 0.0000e+00 1.0000e+00
<mgrwt>
<rscale>  3 0.25718055E+03</rscale>
<asrwt>0</asrwt>
<pdfrwt beam="1">  1       21 0.12972640E-01 0.28956007E+03</pdfrwt>
<pdfrwt beam="2">  1        1 0.23640599E+00 0.28956007E+03</pdfrwt>
<totfact> 0.37802117E+03</totfact>
</mgrwt>
</event>
<event>
13      3 +1.4674046e+01 6.38815600e+02 7.54677100e-03 1.01474800e-01
        2 -1    0    0  503    0 -0.0000000000e+00 +0.0000000000e+00 +2.3184754485e+03 2.3184754485e+03 0.0000000000e+00 0.0000e+00 -1.0000e+00
       21 -1    0    0  504  503 +0.0000000000e+00 -0.0000000000e+00 -8.9925952316e+02 8.9925952316e+02 0.0000000000e+00 0.0000e+00 1.0000e+00
      -24  2    1    2    0    0 -1.7564140026e+01 +3.1218715107e+02 +1.2968462044e+02 3.4779891735e+02 7.9854053259e+01 0.0000e+00 0.0000e+00
        6  2    1    2  501    0 -1.1518654907e+02 -1.2086022307e+02 -5.5759342841e+01 2.4530070719e+02 1.7084553850e+02 0.0000e+00 0.0000e+00
       24  2    4    4    0    0 -6.4346016177e+01 -1.2136751779e+01 +1.3909015992e+01 1.0644350278e+02 8.2758975442e+01 0.0000e+00 0.0000e+00
        5  1    4    4  501    0 -5.0840532896e+01 -1.0872347129e+02 -6.9668358834e+01 1.3885720442e+02 4.7000000000e+00 0.0000e+00 -1.0000e+00
      -13  1    5    5    0    0 -8.2849124356e+01 -4.3975474969e+00 +2.0263530970e+01 8.5404487692e+01 0.0000000000e+00 0.0000e+00 1.0000e+00
       14  1    5    5    0    0 +1.8503108179e+01 -7.7392042817e+00 -6.3545149776e+00 2.1039015086e+01 0.0000000000e+00 0.0000e+00 -1.0000e+00
       -5  1    1    2    0  502 +1.5924481737e+02 -2.6998214716e+02 +1.4161267170e+02 3.4398475320e+02 4.7000000000e+00 0.0000e+00 1.0000e+00
       13  1    3    3    0    0 +2.5158194394e+01 +1.6505901251e+02 +8.9365812627e+01 1.8937703351e+02 0.0000000000e+00 0.0000e+00 -1.0000e+00
      -14  1    3    3    0    0 -4.2722334420e+01 +1.4712813856e+02 +4.0318807815e+01 1.5842188383e+02 0.0000000000e+00 0.0000e+00 1.0000e+00
       21  1    1    2  504  501 +2.4284883074e+01 -7.8476672470e+00 -5.3673906280e+02 5.3734547822e+02 0.0000000000e+00 0.0000e+00 1.0000e+00
        2  1    1    2  502    0 -5.0779011341e+01 +8.6502886418e+01 +1.7404170388e+03 1.7433051157e+03 0.0000000000e+00 0.0000e+00 -1.0000e+00
<mgrwt>
<rscale>  4 0.49630345E+03</rscale>
<asrwt>0</asrwt>
<pdfrwt beam="2">  1       21 0.13834762E+00 0.63881560E+03</pdfrwt>
<pdfrwt beam="1">  1        2 0.35668853E+00 0.63881560E+03</pdfrwt>
<totfact> 0.18233233E+01</totfact>
</mgrwt>
</event>
<event>
12      1 +1.4674046e+01 2.32599800e+02 7.54677100e-03 1.12654800e-01
       21 -1    0    0  503  502 +0.0000000000e+00 +0.0000000000e+00 +9.9193233145e+01 9.9193233145e+01 0.0000000000e+00 0.0000e+00 -1.0000e+00
       21 -1    0    0  501  503 -0.0000000000e+00 -0.0000000000e+00 -8.2606592959e+02 8.2606592959e+02 0.0000000000e+00 0.0000e+00 -1.0000e+00
        6  2    1    2  501    0 +1.1078174951e+02 -8.6115761524e+01 -6.3876360585e+02 6.7653060788e+02 1.7316523565e+02 0.0000e+00 0.0000e+00
       24  2    3    3    0    0 +1.3577839539e+02 -5.2290630531e+01 -3.8548075299e+02 4.1973639973e+02 8.0082155518e+01 0.0000e+00 0.0000e+00
       -6  2    1    2    0  502 -1.1078174951e+02 +8.6115761524e+01 -8.8109090599e+01 2.4872855486e+02 1.8551054349e+02 0.0000e+00 0.0000e+00
      -24  2    5    5    0    0 -9.7663370325e+01 +1.2109881984e+02 -1.0817149795e+02 2.0606127898e+02 8.0976043732e+01 0.0000e+00 0.0000e+00
        5  1    3    3  501    0 -2.4996645875e+01 -3.3825130993e+01 -2.5328285285e+02 2.5679420815e+02 4.7000000000e+00 0.0000e+00 -1.0000e+00
      -13  1    4    4    0    0 +6.6006443462e+01 -3.7872119879e+00 -8.6255322044e+01 1.0867922586e+02 0.0000000000e+00 0.0000e+00 1.0000e+00
       14  1    4    4    0    0 +6.9771951923e+01 -4.8503418543e+01 -2.9922543095e+02 3.1105717386e+02 0.0000000000e+00 0.0000e+00 -1.0000e+00
       -5  1    5    5    0  502 -1.3118379186e+01 -3.4983058318e+01 +2.0062407347e+01 4.2667275871e+01 4.7000000000e+00 0.0000e+00 1.0000e+00
       13  1    6    6    0    0 -3.7381398815e+01 +1.8949858414e+00 -4.4305161086e+01 5.7999200404e+01 0.0000000000e+00 0.0000e+00 -1.0000e+00
      -14  1    6    6    0    0 -6.0281971510e+01 +1.1920383400e+02 -6.3866336860e+01 1.4806207858e+02 0.0000000000e+00 0.0000e+00 1.0000e+00
<mgrwt>
<rscale>  2 0.23013039E+03</rscale>
<asrwt>0</asrwt>
<pdfrwt beam="1">  1       21 0.15260497E-01 0.23259983E+03</pdfrwt>
<pdfrwt beam="2">  1       21 0.12708707E+00 0.23259983E+03</pdfrwt>
<totfact> 0.16966338E+04</totfact>
</mgrwt>
</event>
<event>
12      1 +1.4674046e+01 3.35062000e+02 7.54677100e-03 1.06959200e-01
       21 -1    0    0  503  502 +0.0000000000e+00 +0.0000000000e+00 +1.7735503968e+02 1.7735503968e+02 0.0000000000e+00 0.0000e+00 -1.0000e+00
       21 -1    0    0  501  503 -0.0000000000e+00 -0.0000000000e+00 -8.1441949976e+02 8.1441949976e+02 0.0000000000e+00 0.0000e+00 -1.0000e+00
        6  2    1    2  501    0 -7.7289684092e+01 +2.7719807189e+02 -5.5765479833e+02 6.4743100217e+02 1.5929708770e+02 0.0000e+00 0.0000e+00
       24  2    3    3    0    0 -8.6793633288e+01 +1.0187134288e+02 -2.7178600938e+02 3.1191223750e+02 7.4234114303e+01 0.0000e+00 0.0000e+00
       -6  2    1    2    0  502 +7.7289684092e+01 -2.7719807189e+02 -7.9409661755e+01 3.4434353726e+02 1.7162200019e+02 0.0000e+00 0.0000e+00
      -24  2    5    5    0    0 +8.6798806031e+01 -2.8388178154e+02 -1.0197233907e+02 3.1853152878e+02 5.4231709081e+01 0.0000e+00 0.0000e+00
        5  1    3    3  501    0 +9.5039491962e+00 +1.7532672900e+02 -2.8586878894e+02 3.3551876467e+02 4.7000000000e+00 0.0000e+00 -1.0000e+00
      -13  1    4    4    0    0 -4.8720757432e+01 +8.6866637169e+01 -2.4079214904e+02 2.6057702105e+02 0.0000000000e+00 0.0000e+00 1.0000e+00
       14  1    4    4    0    0 -3.8072875857e+01 +1.5004705715e+01 -3.0993860343e+01 5.1335216456e+01 0.0000000000e+00 0.0000e+00 -1.0000e+00
       -5  1    5    5    0  502 -9.5091219390e+00 +6.6837096530e+00 +2.2562677310e+01 2.5812008488e+01 4.7000000000e+00 0.0000e+00 1.0000e+00
       13  1    6    6    0    0 -6.5888317432e+00 -2.9397374324e+01 -4.4977426402e+00 3.0460597659e+01 0.0000000000e+00 0.0000e+00 -1.0000e+00
      -14  1    6    6    0    0 +9.3387637774e+01 -2.5448440722e+02 -9.7474596425e+01 2.8807093112e+02 0.0000000000e+00 0.0000e+00 1.0000e+00
<mgrwt>
<rscale>  2 0.33351574E+03</rscale>
<asrwt>0</asrwt>
<pdfrwt beam="1">  1       21 0.27285392E-01 0.33506205E+03</pdfrwt>
<pdfrwt beam="2">  1       21 0.12529530E+00 0.33506205E+03</pdfrwt>
<totfact> 0.55686291E+03</totfact>
</mgrwt>
</event>
<event>
14      3 +1.4674046e+01 2.47273000e+02 7.54677100e-03 1.11533800e-01
       21 -1    0    0  501  502 +0.0000000000e+00 +0.0000000000e+00 +3.4974817500e+02 3.4974817500e+02 0.0000000000e+00 0.0000e+00 -1.0000e+00
       21 -1    0    0  504  503 -0.0000000000e+00 -0.0000000000e+00 -3.4980928005e+02 3.4980928005e+02 0.0000000000e+00 0.0000e+00 1.0000e+00
        6  2    1    2  501    0 +1.6269804708e+02 -1.5538171981e+01 +2.5362396739e+01 2.3922990824e+02 1.7284562047e+02 0.0000e+00 0.0000e+00
       24  2    3    3    0    0 +1.3654415704e+02 -5.3050757533e+01 -2.8357386854e+01 1.6852541624e+02 7.8345292347e+01 0.0000e+00 0.0000e+00
       -6  2    1    2    0  503 -1.7500571119e+02 +5.6486743217e+00 -1.3840800526e+02 2.8390310418e+02 1.7545737423e+02 0.0000e+00 0.0000e+00
      -24  2    5    5    0    0 -9.7560462584e+01 +4.3716819048e+01 -1.8775145358e+01 1.3631902190e+02 8.2469179217e+01 0.0000e+00 0.0000e+00
        5  1    3    3  501    0 +2.6153890036e+01 +3.7512585552e+01 +5.3719783594e+01 7.0704491994e+01 4.7000000000e+00 0.0000e+00 -1.0000e+00
      -13  1    4    4    0    0 +3.6435310756e+01 -4.1566473223e+01 +1.7271680352e+01 5.7910400692e+01 0.0000000000e+00 0.0000e+00 1.0000e+00
       14  1    4    4    0    0 +1.0010884629e+02 -1.1484284310e+01 -4.5629067207e+01 1.1061501555e+02 0.0000000000e+00 0.0000e+00 -1.0000e+00
       -5  1    5    5    0  503 -7.7445248603e+01 -3.8068144727e+01 -1.1963285990e+02 1.4758408228e+02 4.7000000000e+00 0.0000e+00 1.0000e+00
       13  1    6    6    0    0 -3.4265755590e+01 -2.3248335341e+01 -1.5186204792e+01 4.4104964780e+01 0.0000000000e+00 0.0000e+00 -1.0000e+00
      -14  1    6    6    0    0 -6.3294706995e+01 +6.6965154389e+01 -3.5889405659e+00 9.2214057119e+01 0.0000000000e+00 0.0000e+00 1.0000e+00
       21  1    1    2  504  505 -1.0896290654e+01 +2.9796483301e+01 -2.1619372586e+01 3.8392145527e+01 0.0000000000e+00 0.0000e+00 1.0000e+00
       21  1    1    2  505  502 +2.3203954762e+01 -1.9906985642e+01 +1.3460387606e+02 1.3803229711e+02 0.0000000000e+00 0.0000e+00 -1.0000e+00
<mgrwt>
<rscale>  4 0.24681011E+03</rscale>
<asrwt>0</asrwt>
<pdfrwt beam="1">  1       21 0.53807412E-01 0.24727299E+03</pdfrwt>
<pdfrwt beam="2">  1       21 0.53816812E-01 0.24727299E+03</pdfrwt>
<totfact> 0.10312452E+04</totfact>
</mgrwt>
</event>
<event>
14      3 +1.4674046e+01 2.55050500e+02 7.54677100e-03 1.11026900e-01
       21 -1    0    0  504  502 +0.0000000000e+00 +0.0000000000e+00 +1.0347403171e+02 1.0347403171e+02 0.0000000000e+00 0.0000e+00 1.0000e+00
       21 -1    0    0  505  503 -0.0000000000e+00 -0.0000000000e+00 -8.3007701903e+02 8.3007701903e+02 0.0000000000e+00 0.0000e+00 -1.0000e+00
       -6  2    1    2    0  502 +7.3216521880e+01 -1.5427561374e+02 -2.8201535777e+02 3.7209662289e+02 1.7251553750e+02 0.0000e+00 0.0000e+00
      -24  2    3    3    0    0 +2.1882529756e+01 -1.2073404655e+02 -2.7308648951e+02 3.0995138844e+02 8.0237630426e+01 0.0000e+00 0.0000e+00
        6  2    1    2  505    0 -9.4576068380e+01 +1.7873933514e+02 -2.5417550882e+02 3.6829263138e+02 1.7361419991e+02 0.0000e+00 0.0000e+00
       24  2    5    5    0    0 -2.6105703969e+01 +2.4525585150e+01 -5.1769810081e+01 1.0077379093e+02 7.8690733858e+01 0.0000e+00 0.0000e+00
        5  1    5    5  501    0 -8.8607880850e+00 +7.3589627219e+01 -7.7410712655e+01 1.0727746843e+02 4.7000000000e+00 0.0000e+00 -1.0000e+00
      -13  1    6    6    0    0 +2.7734649798e+01 +2.4156230524e+00 -2.1463090145e+01 3.5152670919e+01 0.0000000000e+00 0.0000e+00 1.0000e+00
       14  1    6    6    0    0 -5.3840353767e+01 +2.2109962098e+01 -3.0306719936e+01 6.5621120007e+01 0.0000000000e+00 0.0000e+00 -1.0000e+00
       -5  1    3    3    0  502 +5.1333992124e+01 -3.3541567188e+01 -8.9288682552e+00 6.2145234452e+01 4.7000000000e+00 0.0000e+00 1.0000e+00
       13  1    4    4    0    0 -5.5431870507e+00 -1.1283707897e+02 -2.4555477556e+02 2.7029628395e+02 0.0000000000e+00 0.0000e+00 -1.0000e+00
      -14  1    4    4    0    0 +2.7425716807e+01 -7.8969675791e+00 -2.7531713946e+01 3.9655104490e+01 0.0000000000e+00 0.0000e+00 1.0000e+00
       21  1    1    2  504  503 +2.1359546500e+01 -2.4463721408e+01 -1.9041212074e+02 1.9316179647e+02 0.0000000000e+00 0.0000e+00 -1.0000e+00
       21  1    5    5  505  501 -5.9609576325e+01 +8.0624122775e+01 -1.2499498608e+02 1.6024137203e+02 0.0000000000e+00 0.0000e+00 -1.0000e+00
<mgrwt>
<rscale>  4 0.25486367E+03</rscale>
<asrwt>0</asrwt>
<pdfrwt beam="1">  1       21 0.15919082E-01 0.25505053E+03</pdfrwt>
<pdfrwt beam="2">  1       21 0.12770416E+00 0.25505053E+03</pdfrwt>
<totfact> 0.15318606E+04</totfact>
</mgrwt>
</event>
<event>
12      2 +1.4674046e+01 3.32822700e+02 7.54677100e-03 1.08920100e-01
       21 -1    0    0  501  503 +0.0000000000e+00 +0.0000000000e+00 +7.8324190862e+02 7.8324190862e+02 0.0000000000e+00 0.0000e+00 1.0000e+00
       -2 -1    0    0    0  501 -0.0000000000e+00 -0.0000000000e+00 -2.2489373929e+02 2.2489373929e+02 0.0000000000e+00 0.0000e+00 -1.0000e+00
        6  2    1    2  502    0 +1.3134362070e+01 +8.0617672858e+01 +2.4007038046e+02 3.0850990924e+02 1.7570673259e+02 0.0000e+00 0.0000e+00
       24  2    3    3    0    0 -2.3758909776e+01 -8.5207024332e+00 +6.2794425942e+01 1.0662970340e+02 8.2399426906e+01 0.0000e+00 0.0000e+00
      -24  2    1    2    0    0 -6.6153612385e+01 -1.3146680263e+02 +8.0542721176e+01 1.8775092908e+02 8.4282031361e+01 0.0000e+00 0.0000e+00
        5  1    3    3  502    0 +3.6893271846e+01 +8.9138375291e+01 +1.7727595452e+02 2.0188020584e+02 4.7000000000e+00 0.0000e+00 -1.0000e+00
      -13  1    4    4    0    0 -3.8027300675e+01 +1.2141763683e+01 +6.9933359824e+01 8.0524361768e+01 0.0000000000e+00 0.0000e+00 1.0000e+00
       14  1    4    4    0    0 +1.4268390899e+01 -2.0662466116e+01 -7.1389338820e+00 2.6105341634e+01 0.0000000000e+00 0.0000e+00 -1.0000e+00
       -5  1    1    2    0  503 +5.2881243785e+01 +2.6674979926e+01 +3.7135891967e+02 3.7608179658e+02 4.7000000000e+00 0.0000e+00 1.0000e+00
       13  1    5    5    0    0 -7.4503404232e+01 -6.8435836194e+01 +2.7201582780e+01 1.0475756308e+02 0.0000000000e+00 0.0000e+00 -1.0000e+00
      -14  1    5    5    0    0 +8.3497918464e+00 -6.3030966437e+01 +5.3341138397e+01 8.2993365996e+01 0.0000000000e+00 0.0000e+00 1.0000e+00
       -2  1    1    2    0  502 +1.3800652952e-01 +2.4174149846e+01 -1.3362385198e+02 1.3579301302e+02 0.0000000000e+00 0.0000e+00 -1.0000e+00
<mgrwt>
<rscale>  3 0.29220951E+03</rscale>
<asrwt>0</asrwt>
<pdfrwt beam="1">  1       21 0.12049875E+00 0.33282270E+03</pdfrwt>
<pdfrwt beam="2">  1       -2 0.34599037E-01 0.33282270E+03</pdfrwt>
<totfact> 0.31085693E+02</totfact>
</mgrwt>
</event>
<event>
12      1 +1.4674046e+01 1.84246200e+02 7.54677100e-03 1.16375600e-01
       -2 -1    0    0    0  501 -0.0000000000e+00 +0.0000000000e+00 +1.2892183486e+02 1.2892183486e+02 0.0000000000e+00 0.0000e+00 -1.0000e+00
        2 -1    0    0  502    0 +0.0000000000e+00 -0.0000000000e+00 -3.4091928807e+02 3.4091928807e+02 0.0000000000e+00 0.0000e+00 1.0000e+00
        6  2    1    2  502    0 -2.0214808224e+01 +6.0332016170e+01 +5.9847036605e+00 1.8457048158e+02 1.7315269373e+02 0.0000e+00 0.0000e+00
       24  2    3    3    0    0 +2.6817842797e+01 +6.6061691684e+01 -4.4039106672e+01 1.1550984848e+02 7.9496782191e+01 0.0000e+00 0.0000e+00
       -6  2    1    2    0  501 +2.0214808224e+01 -6.0332016170e+01 -2.1798215688e+02 2.8527064135e+02 1.7266883753e+02 0.0000e+00 0.0000e+00
      -24  2    5    5    0    0 +3.0359778266e+01 -7.7567415723e+01 -7.1811931098e+01 1.3766371632e+02 8.2800514632e+01 0.0000e+00 0.0000e+00
        5  1    3    3  502    0 -4.7032651021e+01 -5.7296755141e+00 +5.0023810333e+01 6.9060633097e+01 4.7000000000e+00 0.0000e+00 -1.0000e+00
      -13  1    4    4    0    0 +4.3342673866e+01 +1.1686670847e+01 -3.7138689106e+01 5.8261890476e+01 0.0000000000e+00 0.0000e+00 1.0000e+00
       14  1    4    4    0    0 -1.6524831069e+01 +5.4375020837e+01 -6.9004175658e+00 5.7247958003e+01 0.0000000000e+00 0.0000e+00 -1.0000e+00
       -5  1    5    5    0  501 -1.0144970042e+01 +1.7235399552e+01 -1.4617022578e+02 1.4760692504e+02 4.7000000000e+00 0.0000e+00 1.0000e+00
       13  1    6    6    0    0 +5.8782110948e+01 -4.8887875684e+01 -4.0172829950e+01 8.6366759940e+01 0.0000000000e+00 0.0000e+00 -1.0000e+00
      -14  1    6    6    0    0 -2.8422332681e+01 -2.8679540039e+01 -3.1639101148e+01 5.1296956375e+01 0.0000000000e+00 0.0000e+00 1.0000e+00
<mgrwt>
<rscale>  2 0.18424625E+03</rscale>
<asrwt>0</asrwt>
<pdfrwt beam="2">  1        2 0.52449121E-01 0.18424625E+03</pdfrwt>
<pdfrwt beam="1">  1       -2 0.19834129E-01 0.18424625E+03</pdfrwt>
<totfact> 0.20028090E+03</totfact>
</mgrwt>
</event>
<event>
14      3 +1.4674046e+01 2.33619000e+02 7.54677100e-03 1.12437800e-01
        1 -1    0    0  502    0 +0.0000000000e+00 +0.0000000000e+00 +3.1571708608e+02 3.1571708608e+02 0.0000000000e+00 0.0000e+00 -1.0000e+00
        1 -1    0    0  501    0 -0.0000000000e+00 -0.0000000000e+00 -7.1477786718e+02 7.1477786718e+02 0.0000000000e+00 0.0000e+00 1.0000e+00
        6  2    1    2  501    0 +1.6084416911e+02 +8.1269238277e+01 -1.5231181440e+02 2.9174329973e+02 1.7158009298e+02 0.0000e+00 0.0000e+00
       24  2    3    3    0    0 +1.6371273261e+02 +2.4521243536e+01 -1.4316638836e+02 2.3399996781e+02 8.2802294521e+01 0.0000e+00 0.0000e+00
       -6  2    1    2    0  503 -9.7245161667e+01 -8.6974542698e+01 +1.7333521009e+02 2.7785833483e+02 1.7360577937e+02 0.0000e+00 0.0000e+00
      -24  2    5    5    0    0 +1.1341673395e+01 -4.3657526258e+01 +4.3737106828e+01 1.0325815432e+02 8.1943265534e+01 0.0000e+00 0.0000e+00
        5  1    3    3  501    0 -2.8685634992e+00 +5.6747994741e+01 -9.1454260380e+00 5.7743331919e+01 4.7000000000e+00 0.0000e+00 -1.0000e+00
      -13  1    4    4    0    0 +1.1728051781e+02 +2.4153695756e+01 -4.9722470528e+01 1.2965509998e+02 0.0000000000e+00 0.0000e+00 1.0000e+00
       14  1    4    4    0    0 +4.6432214797e+01 +3.6754778023e-01 -9.3443917831e+01 1.0434486783e+02 0.0000000000e+00 0.0000e+00 -1.0000e+00
       -5  1    5    5    0  503 -1.0858683506e+02 -4.3317016440e+01 +1.2959810326e+02 1.7460018050e+02 4.7000000000e+00 0.0000e+00 1.0000e+00
       13  1    6    6    0    0 +2.9317304048e+00 -6.7532758500e+01 +3.7016440152e+01 7.7068056647e+01 0.0000000000e+00 0.0000e+00 -1.0000e+00
      -14  1    6    6    0    0 +8.4099429900e+00 +2.3875232243e+01 +6.7206666762e+00 2.6190097677e+01 0.0000000000e+00 0.0000e+00 1.0000e+00
        1  1    1    2  502    0 -3.5537253436e+01 +1.5845351889e+01 -4.2820592682e+02 4.2997010050e+02 0.0000000000e+00 0.0000e+00 1.0000e+00
        1  1    1    2  503    0 -2.8061754004e+01 -1.0140047468e+01 +8.1217500257e+00 3.0923218201e+01 0.0000000000e+00 0.0000e+00 -1.0000e+00
<mgrwt>
<rscale>  4 0.23324279E+03</rscale>
<asrwt>0</asrwt>
<pdfrwt beam="1">  1        1 0.48571860E-01 0.23361904E+03</pdfrwt>
<pdfrwt beam="2">  1        1 0.10996582E+00 0.23361904E+03</pdfrwt>
<totfact> 0.27126618E+02</totfact>
</mgrwt>
</event>
<event>
13      2 +1.4674046e+01 2.55671200e+02 7.54677100e-03 1.10977200e-01
        2 -1    0    0  502    0 +0.0000000000e+00 +0.0000000000e+00 +1.6891829532e+03 1.6891829532e+03 0.0000000000e+00 0.0000e+00 1.0000e+00
       -2 -1    0    0    0  501 -0.0000000000e+00 -0.0000000000e+00 -6.7775744912e+01 6.7775744912e+01 0.0000000000e+00 0.0000e+00 -1.0000e+00
        6  2    1    2  502    0 -8.5038825842e+01 -1.6609769845e+02 +2.3562868473e+02 3.4782562865e+02 1.7504783217e+02 0.0000e+00 0.0000e+00
       24  2    3    3    0    0 -4.2029317640e+01 -7.0559214989e+01 +2.1457854891e+02 2.4085545600e+02 7.2265695002e+01 0.0000e+00 0.0000e+00
       -6  2    1    2    0  501 +8.5038825842e+01 +1.6609769845e+02 +1.3857785235e+03 1.4091330694e+03 1.7451029701e+02 0.0000e+00 0.0000e+00
      -24  2    5    5    0    0 -4.1894734729e+00 +9.0613445947e+01 +8.7364142658e+02 8.8201040057e+02 8.0403085724e+01 0.0000e+00 0.0000e+00
        5  1    3    3  502    0 -4.3009508202e+01 -9.5538483463e+01 +2.1050135823e+01 1.0697017265e+02 4.7000000000e+00 0.0000e+00 -1.0000e+00
      -13  1    4    4    0    0 -4.1946743287e+01 -3.7674813727e+00 +9.4268182348e+01 1.0324830939e+02 0.0000000000e+00 0.0000e+00 1.0000e+00
       14  1    4    4    0    0 -8.2574353379e-02 -6.6791733616e+01 +1.2031036656e+02 1.3760714662e+02 0.0000000000e+00 0.0000e+00 -1.0000e+00
       -5  1    5    5    0  503 +1.3446718258e+01 +3.0849976732e+01 +9.7231293430e+01 1.0299781414e+02 4.7000000000e+00 0.0000e+00 1.0000e+00
       13  1    6    6    0    0 +1.7709573059e+01 -3.7282509823e+00 +6.1292886712e+01 6.3908894489e+01 0.0000000000e+00 0.0000e+00 -1.0000e+00
      -14  1    6    6    0    0 -2.1899046531e+01 +9.4341696930e+01 +8.1234853987e+02 8.1810150608e+02 0.0000000000e+00 0.0000e+00 1.0000e+00
       21  1    5    5  503  501 +7.5781581057e+01 +4.4634275772e+01 +4.1490580351e+02 4.2412485472e+02 0.0000000000e+00 0.0000e+00 1.0000e+00
<mgrwt>
<rscale>  3 0.25567122E+03</rscale>
<asrwt>0</asrwt>
<pdfrwt beam="1">  1        2 0.25987427E+00 0.25567122E+03</pdfrwt>
<pdfrwt beam="2">  1       -2 0.10427039E-01 0.25567122E+03</pdfrwt>
<totfact> 0.67452597E+02</totfact>
</mgrwt>
</event>
<event>
12      1 +1.4674046e+01 2.11496400e+02 7.54677100e-03 1.14038600e-01
        1 -1    0    0  502    0 +0.0000000000e+00 +0.0000000000e+00 +9.0854232665e+02 9.0854232665e+02 0.0000000000e+00 0.0000e+00 -1.0000e+00
       -1 -1    0    0    0  501 -0.0000000000e+00 -0.0000000000e+00 -8.1197274637e+01 8.1197274637e+01 0.0000000000e+00 0.0000e+00 1.0000e+00
        6  2    1    2  502    0 -1.2135502110e+02 +5.4867244387e-01 +7.2414756224e+02 7.5439687861e+02 1.7319819965e+02 0.0000e+00 0.0000e+00
       24  2    3    3    0    0 -4.4287066463e+01 -3.7424975940e+01 +5.6101495678e+02 5.6996313829e+02 8.2208419247e+01 0.0000e+00 0.0000e+00
       -6  2    1    2    0  501 +1.2135502110e+02 -5.4867244387e-01 +1.0319748978e+02 2.3534272268e+02 1.7323144356e+02 0.0000e+00 0.0000e+00
      -24  2    5    5    0    0 +9.4549032718e+01 +1.7485409891e+01 +2.0012215740e+00 1.2901039535e+02 8.5990802257e+01 0.0000e+00 0.0000e+00
        5  1    3    3  502    0 -7.7067954638e+01 +3.7973648384e+01 +1.6313260546e+02 1.8443374032e+02 4.7000000000e+00 0.0000e+00 -1.0000e+00
      -13  1    4    4    0    0 -1.5614048605e+01 +1.3365994981e+01 +3.3993998070e+01 3.9724554629e+01 0.0000000000e+00 0.0000e+00 1.0000e+00
       14  1    4    4    0    0 -2.8673017857e+01 -5.0790970921e+01 +5.2702095871e+02 5.3023858366e+02 0.0000000000e+00 0.0000e+00 -1.0000e+00
       -5  1    5    5    0  501 +2.6805988382e+01 -1.8034082335e+01 +1.0119626820e+02 1.0633232734e+02 4.7000000000e+00 0.0000e+00 1.0000e+00
       13  1    6    6    0    0 -1.0509574792e+01 +1.4841910399e+01 +1.4390260594e+01 2.3190797023e+01 0.0000000000e+00 0.0000e+00 -1.0000e+00
      -14  1    6    6    0    0 +1.0505860751e+02 +2.6434994912e+00 -1.2389039020e+01 1.0581959832e+02 0.0000000000e+00 0.0000e+00 1.0000e+00
<mgrwt>
<rscale>  2 0.21149637E+03</rscale>
<asrwt>0</asrwt>
<pdfrwt beam="1">  1        1 0.13977574E+00 0.21149637E+03</pdfrwt>
<pdfrwt beam="2">  1       -1 0.12491889E-01 0.21149637E+03</pdfrwt>
<totfact> 0.81275598E+02</totfact>
</mgrwt>
</event>
<event>
12      1 +1.4674046e+01 1.99457600e+02 7.54677100e-03 1.15071900e-01
       21 -1    0    0  503  502 +0.0000000000e+00 +0.0000000000e+00 +2.3640274717e+02 2.3640274717e+02 0.0000000000e+00 0.0000e+00 -1.0000e+00
       21 -1    0    0  501  503 -0.0000000000e+00 -0.0000000000e+00 -2.0248309128e+02 2.0248309128e+02 0.0000000000e+00 0.0000e+00 -1.0000e+00
        6  2    1    2  501    0 -9.8989610914e+01 -7.3190902667e+00 -7.5808902588e+01 2.1337833960e+02 1.7300524254e+02 0.0000e+00 0.0000e+00
       24  2    3    3    0    0 -6.1076487387e+01 -3.2794052147e+01 -1.1255384095e+02 1.5456797390e+02 8.0106830388e+01 0.0000e+00 0.0000e+00
       -6  2    1    2    0  502 +9.8989610914e+01 +7.3190902667e+00 +1.0972855848e+02 2.2550749886e+02 1.7017862189e+02 0.0000e+00 0.0000e+00
      -24  2    5    5    0    0 +1.4304670668e+01 -3.9581416505e+01 +8.9024699699e+01 1.2640181584e+02 7.9250929047e+01 0.0000e+00 0.0000e+00
        5  1    3    3  501    0 -3.7913123527e+01 +2.5474961880e+01 +3.6744938361e+01 5.8810365698e+01 4.7000000000e+00 0.0000e+00 -1.0000e+00
      -13  1    4    4    0    0 +1.7116128855e+01 -2.0628357367e+01 -2.8572106683e+01 3.9177241799e+01 0.0000000000e+00 0.0000e+00 1.0000e+00
       14  1    4    4    0    0 -7.8192616241e+01 -1.2165694779e+01 -8.3981734265e+01 1.1539073210e+02 0.0000000000e+00 0.0000e+00 -1.0000e+00
       -5  1    5    5    0  502 +8.4684940246e+01 +4.6900506772e+01 +2.0703858779e+01 9.9105683027e+01 4.7000000000e+00 0.0000e+00 1.0000e+00
       13  1    6    6    0    0 +2.0131015376e+01 -3.4532350658e+00 +8.7417098343e+01 8.9771552817e+01 0.0000000000e+00 0.0000e+00 -1.0000e+00
      -14  1    6    6    0    0 -5.8263447083e+00 -3.6128181439e+01 +1.6076013561e+00 3.6630263020e+01 0.0000000000e+00 0.0000e+00 1.0000e+00
<mgrwt>
<rscale>  2 0.19884306E+03</rscale>
<asrwt>0</asrwt>
<pdfrwt beam="1">  1       21 0.36369653E-01 0.19945758E+03</pdfrwt>
<pdfrwt beam="2">  1       21 0.31151245E-01 0.19945758E+03</pdfrwt>
<totfact> 0.71965576E+04</totfact>
</mgrwt>
</event>
<event>
13      2 +1.4674046e+01 1.81440800e+02 7.54677100e-03 1.16699400e-01
       21 -1    0    0  504  502 +0.0000000000e+00 +0.0000000000e+00 +5.4745255964e+02 5.4745255964e+02 0.0000000000e+00 0.0000e+00 -1.0000e+00
       21 -1    0    0  502  503 -0.0000000000e+00 -0.0000000000e+00 -1.8510084425e+02 1.8510084425e+02 0.0000000000e+00 0.0000e+00 -1.0000e+00
        6  2    1    2  501    0 +4.7199540368e+01 +6.3056185853e+01 +6.3401807308e+01 1.9906115888e+02 1.7146917104e+02 0.0000e+00 0.0000e+00
       24  2    3    3    0    0 -2.6818596901e+01 +7.3613718887e+01 +4.8638346001e+01 1.2270543913e+02 8.0948868686e+01 0.0000e+00 0.0000e+00
       -6  2    1    2    0  503 -2.7775710437e+01 -2.5474459516e+01 -4.7687028992e+01 1.8428337132e+02 1.7397088846e+02 0.0000e+00 0.0000e+00
      -24  2    5    5    0    0 -3.8588175034e+01 -4.3295534182e+01 -9.1937051257e+01 1.3514423658e+02 8.0299394475e+01 0.0000e+00 0.0000e+00
        5  1    3    3  501    0 +7.4018137269e+01 -1.0557533034e+01 +1.4763461307e+01 7.6355719748e+01 4.7000000000e+00 0.0000e+00 -1.0000e+00
      -13  1    4    4    0    0 +1.5041804632e+01 +3.5902444602e+01 +5.3490332459e+01 6.6154796361e+01 0.0000000000e+00 0.0000e+00 1.0000e+00
       14  1    4    4    0    0 -4.1860401533e+01 +3.7711274285e+01 -4.8519864577e+00 5.6550642766e+01 0.0000000000e+00 0.0000e+00 -1.0000e+00
       -5  1    5    5    0  503 +1.0812464598e+01 +1.7821074666e+01 +4.4250022266e+01 4.9139134745e+01 4.7000000000e+00 0.0000e+00 1.0000e+00
       13  1    6    6    0    0 -2.7602895776e+01 -3.3685438497e+01 -1.5411102269e+00 4.3577558934e+01 0.0000000000e+00 0.0000e+00 -1.0000e+00
      -14  1    6    6    0    0 -1.0985279258e+01 -9.6100956857e+00 -9.0395941031e+01 9.1566677641e+01 0.0000000000e+00 0.0000e+00 1.0000e+00
       21  1    1    2  504  501 -1.9423829931e+01 -3.7581726337e+01 +3.4663693707e+02 3.4920887370e+02 0.0000000000e+00 0.0000e+00 -1.0000e+00
<mgrwt>
<rscale>  3 0.18083845E+03</rscale>
<asrwt>0</asrwt>
<pdfrwt beam="1">  1       21 0.84223470E-01 0.18144077E+03</pdfrwt>
<pdfrwt beam="2">  1       21 0.28477053E-01 0.18144077E+03</pdfrwt>
<totfact> 0.14534131E+04</totfact>
</mgrwt>
</event>
<event>
14      3 +1.4674046e+01 1.86703000e+02 7.54677100e-03 1.16202500e-01
       21 -1    0    0  504  502 +0.0000000000e+00 +0.0000000000e+00 +1.3566720722e+03 1.3566720722e+03 0.0000000000e+00 0.0000e+00 -1.0000e+00
       21 -1    0    0  501  503 -0.0000000000e+00 -0.0000000000e+00 -1.2064785144e+02 1.2064785144e+02 0.0000000000e+00 0.0000e+00 1.0000e+00
        6  2    1    2  501    0 -1.1274360579e+02 -1.1888439811e+00 +1.2350071524e+02 2.4245747380e+02 1.7555815543e+02 0.0000e+00 0.0000e+00
       24  2    3    3    0    0 -9.5166273909e+01 -6.6337951940e+01 +8.4028549553e+01 1.6414074041e+02 8.0150121430e+01 0.0000e+00 0.0000e+00
       -6  2    1    2    0  505 +3.8885368446e+01 +6.4959681542e+01 +5.0818450047e+02 5.4214087020e+02 1.7301272937e+02 0.0000e+00 0.0000e+00
      -24  2    5    5    0    0 +6.1096458702e+01 +9.7113077788e+00 +1.7648263405e+02 2.0510387888e+02 8.4228227132e+01 0.0000e+00 0.0000e+00
        5  1    3    3  501    0 -1.7577331882e+01 +6.5149107959e+01 +3.9472165689e+01 7.8316733385e+01 4.7000000000e+00 0.0000e+00 -1.0000e+00
      -13  1    4    4    0    0 -3.4388519614e+01 -7.7937907235e+00 -1.1109328697e+01 3.6969320243e+01 0.0000000000e+00 0.0000e+00 1.0000e+00
       14  1    4    4    0    0 -6.0777754294e+01 -5.8544161217e+01 +9.5137878250e+01 1.2717142017e+02 0.0000000000e+00 0.0000e+00 -1.0000e+00
       -5  1    5    5    0  505 -2.2211090256e+01 +5.5248373763e+01 +3.3170186642e+02 3.3703699133e+02 4.7000000000e+00 0.0000e+00 1.0000e+00
       13  1    6    6    0    0 +2.9024769399e+01 -3.7504780567e+01 +8.0902409524e+01 9.3777639504e+01 0.0000000000e+00 0.0000e+00 -1.0000e+00
      -14  1    6    6    0    0 +3.2071689303e+01 +4.7216088346e+01 +9.5580224521e+01 1.1132623937e+02 0.0000000000e+00 0.0000e+00 1.0000e+00
       21  1    1    2  504  503 +6.4107711320e+01 -7.2172054348e-01 -1.8418217034e+01 6.6704949216e+01 0.0000000000e+00 0.0000e+00 1.0000e+00
       21  1    1    2  505  502 +9.7505260254e+00 -6.3049117018e+01 +6.2275722207e+02 6.2601663041e+02 0.0000000000e+00 0.0000e+00 -1.0000e+00
<mgrwt>
<rscale>  4 0.18610221E+03</rscale>
<asrwt>0</asrwt>
<pdfrwt beam="1">  1       21 0.20871877E+00 0.18670296E+03</pdfrwt>
<pdfrwt beam="2">  1       21 0.18561209E-01 0.18670296E+03</pdfrwt>
<totfact> 0.31543574E+03</totfact>
</mgrwt>
</event>
<event>
12      1 +1.4674046e+01 2.01891300e+02 7.54677100e-03 1.14832300e-01
       21 -1    0    0  501  502 +0.0000000000e+00 +0.0000000000e+00 +5.1028226723e+01 5.1028226723e+01 0.0000000000e+00 0.0000e+00 1.0000e+00
       21 -1    0    0  502  503 -0.0000000000e+00 -0.0000000000e+00 -1.1267940522e+03 1.1267940522e+03 0.0000000000e+00 0.0000e+00 1.0000e+00
       -6  2    1    2    0  503 -7.8930735804e+01 -6.4873140337e+01 -8.5795168160e+02 8.8138594666e+02 1.7413073712e+02 0.0000e+00 0.0000e+00
      -24  2    3    3    0    0 -2.7617592358e+01 -1.0066163797e+02 -4.6115330188e+02 4.7965855227e+02 8.0712218167e+01 0.0000e+00 0.0000e+00
        6  2    1    2  501    0 +7.8930735804e+01 +6.4873140337e+01 -2.1781414387e+02 2.9643633226e+02 1.7318461947e+02 0.0000e+00 0.0000e+00
       24  2    5    5    0    0 +2.5455895741e+01 +1.0412747488e+02 -1.5879950569e+02 2.0752469737e+02 7.9741352872e+01 0.0000e+00 0.0000e+00
        5  1    5    5  501    0 +5.3474840063e+01 -3.9254334539e+01 -5.9014638175e+01 8.8911634890e+01 4.7000000000e+00 0.0000e+00 -1.0000e+00
      -13  1    6    6    0    0 -1.2470370811e+01 +6.8714447387e+01 -4.6740132037e+01 8.4034667672e+01 0.0000000000e+00 0.0000e+00 1.0000e+00
       14  1    6    6    0    0 +3.7926266552e+01 +3.5413027489e+01 -1.1205937366e+02 1.2349002970e+02 0.0000000000e+00 0.0000e+00 -1.0000e+00
       -5  1    3    3    0  503 -5.1313143446e+01 +3.5788497633e+01 -3.9679837973e+02 4.0172739439e+02 4.7000000000e+00 0.0000e+00 1.0000e+00
       13  1    4    4    0    0 -2.6950421346e+01 -4.9686402034e+01 -9.9540958823e+01 1.1447037277e+02 0.0000000000e+00 0.0000e+00 -1.0000e+00
      -14  1    4    4    0    0 -6.6717101212e-01 -5.0975235937e+01 -3.6161234306e+02 3.6518817950e+02 0.0000000000e+00 0.0000e+00 1.0000e+00
<mgrwt>
<rscale>  2 0.20168713E+03</rscale>
<asrwt>0</asrwt>
<pdfrwt beam="1">  1       21 0.78504969E-02 0.20189130E+03</pdfrwt>
<pdfrwt beam="2">  1       21 0.17335292E+00 0.20189130E+03</pdfrwt>
<totfact> 0.24913184E+04</totfact>
</mgrwt>
</event>
<event>
14      3 +1.4674046e+01 1.92460100e+02 7.54677100e-03 1.15632500e-01
       21 -1    0    0  501  503 +0.0000000000e+00 +0.0000000000e+00 +8.7594927279e+01 8.7594927279e+01 0.0000000000e+00 0.0000e+00 -1.0000e+00
        1 -1    0    0  503    0 -0.0000000000e+00 -0.0000000000e+00 -1.1899207028e+03 1.1899207028e+03 0.0000000000e+00 0.0000e+00 -1.0000e+00
       -6  2    1    2    0  504 -8.4875558125e+01 +5.9421749104e+01 -3.0860462766e+02 3.6875083266e+02 1.7322111807e+02 0.0000e+00 0.0000e+00
      -24  2    3    3    0    0 -6.2311015783e+01 +2.2457900954e+01 -7.2316657538e+01 1.2848102710e+02 8.3009971478e+01 0.0000e+00 0.0000e+00
        6  2    1    2  501    0 -4.0517541105e+01 -9.8283768127e+01 -1.5577165325e+02 2.5585219421e+02 1.7289929760e+02 0.0000e+00 0.0000e+00
       24  2    5    5    0    0 +8.4393488867e+00 -8.2836067140e+01 -1.6689461971e+02 2.0311493104e+02 8.0429002839e+01 0.0000e+00 0.0000e+00
        5  1    5    5  501    0 -4.8956889992e+01 -1.5447700987e+01 +1.1122966455e+01 5.2737263166e+01 4.7000000000e+00 0.0000e+00 -1.0000e+00
      -13  1    6    6    0    0 -2.8179900613e+01 -1.1227720576e+01 -2.2272169002e+01 3.7632672241e+01 0.0000000000e+00 0.0000e+00 1.0000e+00
       14  1    6    6    0    0 +3.6619249500e+01 -7.1608346563e+01 -1.4462245070e+02 1.6548225880e+02 0.0000000000e+00 0.0000e+00 -1.0000e+00
       -5  1    3    3    0  504 -2.2564542341e+01 +3.6963848151e+01 -2.3628797012e+02 2.4026980556e+02 4.7000000000e+00 0.0000e+00 1.0000e+00
       13  1    4    4    0    0 -4.3161674317e+01 -2.2940526137e+00 +6.4723160629e+00 4.3704504143e+01 0.0000000000e+00 0.0000e+00 -1.0000e+00
      -14  1    4    4    0    0 -1.9149341467e+01 +2.4751953568e+01 -7.8788973601e+01 8.4776522960e+01 0.0000000000e+00 0.0000e+00 1.0000e+00
       21  1    1    2  504  502 +2.1055924784e+01 -1.0503935506e+01 -1.0367375299e+02 1.0631054364e+02 0.0000000000e+00 0.0000e+00 -1.0000e+00
        1  1    1    2  502    0 +1.0433717445e+02 +4.9365954529e+01 -5.3427574165e+02 5.4660205959e+02 0.0000000000e+00 0.0000e+00 -1.0000e+00
<mgrwt>
<rscale>  4 0.19238767E+03</rscale>
<asrwt>0</asrwt>
<pdfrwt beam="1">  1       21 0.13476143E-01 0.19246011E+03</pdfrwt>
<pdfrwt beam="2">  1        1 0.18306472E+00 0.19246011E+03</pdfrwt>
<totfact> 0.62606800E+03</totfact>
</mgrwt>
</event>
<event>
14      3 +1.4674046e+01 1.89625100e+02 7.54677100e-03 1.15898800e-01
       21 -1    0    0  501  502 +0.0000000000e+00 +0.0000000000e+00 +2.3223898511e+02 2.3223898511e+02 0.0000000000e+00 0.0000e+00 1.0000e+00
       21 -1    0    0  504  503 -0.0000000000e+00 -0.0000000000e+00 -2.5857739321e+03 2.5857739321e+03 0.0000000000e+00 0.0000e+00 1.0000e+00
       -6  2    1    2    0  503 +2.3242958839e+01 -1.3546692390e+02 -1.6164887471e+02 2.7350793346e+02 1.7258246830e+02 0.0000e+00 0.0000e+00
      -24  2    3    3    0    0 -3.6845415240e+01 -1.3307864392e+02 -1.0424466363e+02 1.9023939180e+02 7.9098458930e+01 0.0000e+00 0.0000e+00
        6  2    1    2  501    0 +2.4239379162e+01 +5.2003932328e+01 +9.4438074471e+01 2.0415994238e+02 1.7167054402e+02 0.0000e+00 0.0000e+00
       24  2    5    5    0    0 +5.9443486797e+01 +5.4039082628e+01 +3.4200129571e+01 1.3420159022e+02 1.0191500077e+02 0.0000e+00 0.0000e+00
        5  1    5    5  501    0 -3.5204107635e+01 -2.0351503003e+00 +6.0237944900e+01 6.9958352160e+01 4.7000000000e+00 0.0000e+00 -1.0000e+00
      -13  1    6    6    0    0 +6.4181182158e+01 +1.6263036579e+00 +4.7568303717e+01 7.9903770407e+01 0.0000000000e+00 0.0000e+00 1.0000e+00
       14  1    6    6    0    0 -4.7376953607e+00 +5.2412778970e+01 -1.3368174147e+01 5.4297819815e+01 0.0000000000e+00 0.0000e+00 -1.0000e+00
       -5  1    3    3    0  503 +6.0088374079e+01 -2.3882799768e+00 -5.7404211080e+01 8.3268541662e+01 4.7000000000e+00 0.0000e+00 1.0000e+00
       13  1    4    4    0    0 -1.8761462840e+01 -9.7308722627e+01 -2.6202577336e+01 1.0250636588e+02 0.0000000000e+00 0.0000e+00 -1.0000e+00
      -14  1    4    4    0    0 -1.8083952400e+01 -3.5769921297e+01 -7.8042086295e+01 8.7733025921e+01 0.0000000000e+00 0.0000e+00 1.0000e+00
       21  1    1    2  504  505 -1.0011354526e+02 +9.2399352806e+01 -2.2827814607e+03 2.2868431428e+03 0.0000000000e+00 0.0000e+00 1.0000e+00
       21  1    1    2  505  502 +5.2631207254e+01 -8.9363612338e+00 -3.5426860527e+00 5.3501898598e+01 0.0000000000e+00 0.0000e+00 -1.0000e+00
<mgrwt>
<rscale>  4 0.18941736E+03</rscale>
<asrwt>0</asrwt>
<pdfrwt beam="1">  1       21 0.35729077E-01 0.18962510E+03</pdfrwt>
<pdfrwt beam="2">  1       21 0.39781135E+00 0.18962510E+03</pdfrwt>
<totfact> 0.68294423E+01</totfact>
</mgrwt>
</event>
<event>
13      2 +1.4674046e+01 2.11140000e+02 7.54677100e-03 1.14066600e-01
       21 -1    0    0  501  503 +0.0000000000e+00 +0.0000000000e+00 +1.8151203630e+02 1.8151203630e+02 0.0000000000e+00 0.0000e+00 1.0000e+00
        2 -1    0    0  503    0 -0.0000000000e+00 -0.0000000000e+00 -4.0813856171e+02 4.0813856171e+02 0.0000000000e+00 0.0000e+00 -1.0000e+00
       -6  2    1    2    0  502 +9.2023132747e+01 +8.0445887603e+01 -2.3249345357e+02 3.1372189047e+02 1.7154713875e+02 0.0000e+00 0.0000e+00
      -24  2    3    3    0    0 +2.1256919822e+01 +9.7417854961e+01 -1.8442402759e+02 2.2637966539e+02 8.5401614989e+01 0.0000e+00 0.0000e+00
        6  2    1    2  501    0 -1.2747161120e+02 -3.4258747388e+01 +8.9014071406e+00 2.1762729582e+02 1.7279968577e+02 0.0000e+00 0.0000e+00
       24  2    5    5    0    0 -1.5281192739e+02 -4.8034120090e+01 +2.9871011912e+01 1.8165915934e+02 8.0305734364e+01 0.0000e+00 0.0000e+00
        5  1    5    5  501    0 +2.5340316195e+01 +1.3775372702e+01 -2.0969604772e+01 3.5968136485e+01 4.7000000000e+00 0.0000e+00 -1.0000e+00
      -13  1    6    6    0    0 -3.6474673493e+01 +8.6357807977e+00 +3.6185348575e+01 5.2099500649e+01 0.0000000000e+00 0.0000e+00 1.0000e+00
       14  1    6    6    0    0 -1.1633725390e+02 -5.6669900887e+01 -6.3143366626e+00 1.2955965869e+02 0.0000000000e+00 0.0000e+00 -1.0000e+00
       -5  1    3    3    0  502 +7.0766212924e+01 -1.6971967358e+01 -4.8069425972e+01 8.7342225074e+01 4.7000000000e+00 0.0000e+00 1.0000e+00
       13  1    4    4    0    0 +2.3609025431e+01 +4.3694251755e+00 -9.2483091014e+01 9.5548940767e+01 0.0000000000e+00 0.0000e+00 -1.0000e+00
      -14  1    4    4    0    0 -2.3521056088e+00 +9.3048429786e+01 -9.1940936580e+01 1.3083072462e+02 0.0000000000e+00 0.0000e+00 1.0000e+00
        2  1    1    2  502    0 +3.5448478453e+01 -4.6187140215e+01 -3.0344789879e+00 5.8301411721e+01 0.0000000000e+00 0.0000e+00 -1.0000e+00
<mgrwt>
<rscale>  3 0.21114004E+03</rscale>
<asrwt>0</asrwt>
<pdfrwt beam="1">  1       21 0.27924928E-01 0.21114004E+03</pdfrwt>
<pdfrwt beam="2">  1        2 0.62790548E-01 0.21114004E+03</pdfrwt>
<totfact> 0.11880195E+04</totfact>
</mgrwt>
</event>
<event>
13      2 +1.4674046e+01 2.27117100e+02 7.54677100e-03 1.12917600e-01
       21 -1    0    0  503  502 +0.0000000000e+00 +0.0000000000e+00 +1.7924266737e+02 1.7924266737e+02 0.0000000000e+00 0.0000e+00 1.0000e+00
       21 -1    0    0  504  503 -0.0000000000e+00 -0.0000000000e+00 -2.8474825980e+02 2.8474825980e+02 0.0000000000e+00 0.0000e+00 -1.0000e+00
        6  2    1    2  504    0 +1.5862570509e+01 +1.4379782714e+02 -6.1283921330e+01 2.3260867830e+02 1.7152737966e+02 0.0000e+00 0.0000e+00
       24  2    3    3    0    0 -1.4835976339e+01 +3.0609751905e+01 +2.3770732873e+01 8.3083348937e+01 7.1977302142e+01 0.0000e+00 0.0000e+00
       -6  2    1    2    0  502 -1.5862570509e+01 -1.4379782714e+02 -4.4221671096e+01 2.3138224887e+02 1.7507927538e+02 0.0000e+00 0.0000e+00
      -24  2    5    5    0    0 -7.5159328939e+01 -1.1929128525e+02 -4.2968815495e+01 1.6703680768e+02 7.8585243851e+01 0.0000e+00 0.0000e+00
        5  1    3    3  501    0 +3.4221121465e+01 +6.4289155876e+01 -4.1550144267e+01 8.3980266767e+01 4.7000000000e+00 0.0000e+00 -1.0000e+00
      -13  1    4    4    0    0 -3.9178406506e+01 +8.6901674380e+00 +2.9529123471e+01 4.9824047201e+01 0.0000000000e+00 0.0000e+00 1.0000e+00
       14  1    4    4    0    0 +2.4342430168e+01 +2.1919584467e+01 -5.7583905978e+00 3.3259301736e+01 0.0000000000e+00 0.0000e+00 -1.0000e+00
       -5  1    5    5    0  502 +5.9296758430e+01 -2.4506541884e+01 -1.2528556012e+00 6.4345441195e+01 4.7000000000e+00 0.0000e+00 1.0000e+00
       13  1    6    6    0    0 -5.8137689543e+00 -3.5352503018e+01 -4.5766912370e+01 5.8122367871e+01 0.0000000000e+00 0.0000e+00 -1.0000e+00
      -14  1    6    6    0    0 -6.9345559985e+01 -8.3938782235e+01 +2.7980968752e+00 1.0891443981e+02 0.0000000000e+00 0.0000e+00 1.0000e+00
       21  1    3    3  504  501 -3.5225746168e+00 +4.8898919355e+01 -4.3504509936e+01 6.5545062597e+01 0.0000000000e+00 0.0000e+00 -1.0000e+00
<mgrwt>
<rscale>  3 0.22643237E+03</rscale>
<asrwt>0</asrwt>
<pdfrwt beam="1">  1       21 0.27575795E-01 0.22711713E+03</pdfrwt>
<pdfrwt beam="2">  1       21 0.43807424E-01 0.22711713E+03</pdfrwt>
<totfact> 0.61877717E+04</totfact>
</mgrwt>
</event>
<event>
12      1 +1.4674046e+01 1.83106400e+02 7.54677100e-03 1.16695400e-01
       21 -1    0    0  501  502 +0.0000000000e+00 +0.0000000000e+00 +3.3579396055e+02 3.3579396055e+02 0.0000000000e+00 0.0000e+00 1.0000e+00
       21 -1    0    0  502  503 -0.0000000000e+00 -0.0000000000e+00 -1.1655942863e+02 1.1655942863e+02 0.0000000000e+00 0.0000e+00 1.0000e+00
        6  2    1    2  501    0 -2.3680409806e+01 +1.0748613510e+01 +2.0437088794e+02 2.6864473544e+02 1.7241299122e+02 0.0000e+00 0.0000e+00
       24  2    3    3    0    0 -7.3056822105e+01 +3.0341123488e+01 +8.2743627046e+01 1.3583970116e+02 7.3130250670e+01 0.0000e+00 0.0000e+00
       -6  2    1    2    0  503 +2.3680409806e+01 -1.0748613510e+01 +1.4863643976e+01 1.8370865373e+02 1.8125023322e+02 0.0000e+00 0.0000e+00
      -24  2    5    5    0    0 -2.1042822369e+01 +4.5997007693e+01 -2.3466715415e+01 1.0178466779e+02 8.5152256428e+01 0.0000e+00 0.0000e+00
        5  1    3    3  501    0 +4.9376412298e+01 -1.9592509978e+01 +1.2162726090e+02 1.3280503429e+02 4.7000000000e+00 0.0000e+00 -1.0000e+00
      -13  1    4    4    0    0 -5.9199147713e+01 -9.3902055467e+00 +2.6345195900e+01 6.5473539672e+01 0.0000000000e+00 0.0000e+00 1.0000e+00
       14  1    4    4    0    0 -1.3857674391e+01 +3.9731329035e+01 +5.6398431145e+01 7.0366161484e+01 0.0000000000e+00 0.0000e+00 -1.0000e+00
       -5  1    5    5    0  503 +4.4723232175e+01 -5.6745621204e+01 +3.8330359391e+01 8.1923985944e+01 4.7000000000e+00 0.0000e+00 1.0000e+00
       13  1    6    6    0    0 +1.0882816874e+01 +1.9422642569e+01 -4.8443960694e+01 5.3315026730e+01 0.0000000000e+00 0.0000e+00 -1.0000e+00
      -14  1    6    6    0    0 -3.1925639243e+01 +2.6574365124e+01 +2.4977245279e+01 4.8469641060e+01 0.0000000000e+00 0.0000e+00 1.0000e+00
<mgrwt>
<rscale>  2 0.18088032E+03</rscale>
<asrwt>0</asrwt>
<pdfrwt beam="1">  1       21 0.51660609E-01 0.18310637E+03</pdfrwt>
<pdfrwt beam="2">  1       21 0.17932220E-01 0.18310637E+03</pdfrwt>
<totfact> 0.10097992E+05</totfact>
</mgrwt>
</event>
<event>
13      2 +1.4674046e+01 2.06707400e+02 7.54677100e-03 1.14455200e-01
       21 -1    0    0  501  502 +0.0000000000e+00 +0.0000000000e+00 +1.9801704403e+03 1.9801704403e+03 0.0000000000e+00 0.0000e+00 -1.0000e+00
       21 -1    0    0  504  503 -0.0000000000e+00 -0.0000000000e+00 -2.5162733901e+01 2.5162733901e+01 0.0000000000e+00 0.0000e+00 1.0000e+00
       -6  2    1    2    0  503 +3.5550959962e+00 -1.1881675867e+02 +1.1242768596e+03 1.1435015973e+03 1.7166066877e+02 0.0000e+00 0.0000e+00
      -24  2    3    3    0    0 -6.3904996634e+01 -7.1979148791e+01 +6.2382768946e+02 6.3633684334e+02 8.0614797599e+01 0.0000e+00 0.0000e+00
        6  2    1    2  501    0 -2.1815714425e+01 +1.0899316138e+02 +7.9568114264e+02 8.2110768940e+02 1.6956981518e+02 0.0000e+00 0.0000e+00
       24  2    5    5    0    0 -5.6219155521e+01 +1.1620669531e+02 +4.8053676312e+02 5.0397411853e+02 8.0060864083e+01 0.0000e+00 0.0000e+00
        5  1    5    5  501    0 +3.4403441095e+01 -7.2135339283e+00 +3.1514437952e+02 3.1713357087e+02 4.7000000000e+00 0.0000e+00 -1.0000e+00
      -13  1    6    6    0    0 -7.4897506440e+00 -7.9853328023e+00 +9.7857823552e+00 1.4684122070e+01 0.0000000000e+00 0.0000e+00 1.0000e+00
       14  1    6    6    0    0 -4.8729404877e+01 +1.2419202811e+02 +4.7075098077e+02 4.8928999646e+02 0.0000000000e+00 0.0000e+00 -1.0000e+00
       -5  1    3    3    0  503 +6.7460092630e+01 -4.6837609881e+01 +5.0044917014e+02 5.0716475399e+02 4.7000000000e+00 0.0000e+00 1.0000e+00
       13  1    4    4    0    0 -4.5048307756e+01 +1.6832496150e+00 +1.5648524273e+02 1.6284905450e+02 0.0000000000e+00 0.0000e+00 -1.0000e+00
      -14  1    4    4    0    0 -1.8856688878e+01 -7.3662398406e+01 +4.6734244674e+02 4.7348778883e+02 0.0000000000e+00 0.0000e+00 1.0000e+00
       21  1    1    2  504  502 +1.8260618429e+01 +9.8235972917e+00 +3.5049704149e+01 4.0723887463e+01 0.0000000000e+00 0.0000e+00 -1.0000e+00
<mgrwt>
<rscale>  3 0.20627280E+03</rscale>
<asrwt>0</asrwt>
<pdfrwt beam="1">  1       21 0.30464148E+00 0.20670743E+03</pdfrwt>
<pdfrwt beam="2">  1       21 0.38711914E-02 0.20670743E+03</pdfrwt>
<totfact> 0.13096305E+04</totfact>
</mgrwt>
</event>
<event>
14      3 +1.4674046e+01 1.85859400e+02 7.54677100e-03 1.16339200e-01
       21 -1    0    0  505  502 +0.0000000000e+00 +0.0000000000e+00 +3.3108303689e+02 3.3108303689e+02 0.0000000000e+00 0.0000e+00 -1.0000e+00
       21 -1    0    0  504  503 -0.0000000000e+00 -0.0000000000e+00 -2.1714073141e+02 2.1714073141e+02 0.0000000000e+00 0.0000e+00 -1.0000e+00
       -6  2    1    2    0  503 -3.9621910756e+01 -3.2119295477e+01 -6.0050586317e+01 1.9320971441e+02 1.7641535044e+02 0.0000e+00 0.0000e+00
      -24  2    3    3    0    0 +1.2210905882e+01 -2.8539692253e+01 -9.6709159836e+01 1.2944926074e+02 8.0254777139e+01 0.0000e+00 0.0000e+00
        6  2    1    2  505    0 -6.4560946460e+01 +4.8997775842e+01 +1.6103182370e+02 2.4867995717e+02 1.7129382654e+02 0.0000e+00 0.0000e+00
       24  2    5    5    0    0 -7.2594123649e+01 -2.3711807994e+01 +7.8453969879e+01 1.3492331576e+02 7.8848710318e+01 0.0000e+00 0.0000e+00
        5  1    5    5  501    0 +6.1715909414e+00 +3.2048343668e+01 +5.6492352691e+01 6.5411472840e+01 4.7000000000e+00 0.0000e+00 -1.0000e+00
      -13  1    6    6    0    0 -5.6700536755e+01 +1.3380519839e+01 +1.5738068081e+01 6.0346300354e+01 0.0000000000e+00 0.0000e+00 1.0000e+00
       14  1    6    6    0    0 -1.5893586894e+01 -3.7092327832e+01 +6.2715901798e+01 7.4577015405e+01 0.0000000000e+00 0.0000e+00 -1.0000e+00
       -5  1    3    3    0  503 -5.1832816638e+01 -3.5796032241e+00 +3.6658573518e+01 6.3760453670e+01 4.7000000000e+00 0.0000e+00 1.0000e+00
       13  1    4    4    0    0 +2.2122542891e+01 +1.9366749959e+01 -1.2264531666e+01 3.1857442536e+01 0.0000000000e+00 0.0000e+00 -1.0000e+00
      -14  1    4    4    0    0 -9.9116370094e+00 -4.7906442212e+01 -8.4444628170e+01 9.7591818204e+01 0.0000000000e+00 0.0000e+00 1.0000e+00
       21  1    1    2  504  502 +1.0418285722e+02 -1.6878480365e+01 +1.2961068092e+01 1.0633409671e+02 0.0000000000e+00 0.0000e+00 -1.0000e+00
       21  1    5    5  505  501 +1.8615862475e+00 +4.0661240168e+01 +2.6085501130e+01 4.8345168575e+01 0.0000000000e+00 0.0000e+00 -1.0000e+00
<mgrwt>
<rscale>  4 0.18463380E+03</rscale>
<asrwt>0</asrwt>
<pdfrwt beam="1">  1       21 0.50935852E-01 0.18585940E+03</pdfrwt>
<pdfrwt beam="2">  1       21 0.33406266E-01 0.18585940E+03</pdfrwt>
<totfact> 0.31748234E+04</totfact>
</mgrwt>
</event>
<event>
13      2 +1.4674046e+01 3.11687500e+02 7.54677100e-03 1.07968400e-01
       21 -1    0    0  504  502 +0.0000000000e+00 +0.0000000000e+00 +7.8667219832e+02 7.8667219832e+02 0.0000000000e+00 0.0000e+00 -1.0000e+00
       21 -1    0    0  501  503 -0.0000000000e+00 -0.0000000000e+00 -9.6900685361e+02 9.6900685361e+02 0.0000000000e+00 0.0000e+00 -1.0000e+00
        6  2    1    2  501    0 -2.3995493674e+02 -2.9951685176e+01 -6.0747281215e+02 6.7571976865e+02 1.7058286294e+02 0.0000e+00 0.0000e+00
       24  2    3    3    0    0 -1.1244950873e+02 +4.7758591655e+01 -2.7756327430e+02 3.1356108180e+02 7.9708253571e+01 0.0000e+00 0.0000e+00
       -6  2    1    2    0  502 +3.0570837076e+02 +4.6119373535e+01 -2.2937279963e+02 4.2195510366e+02 1.7277043650e+02 0.0000e+00 0.0000e+00
      -24  2    5    5    0    0 +2.8687168606e+02 +6.6364201986e+01 -2.4759348553e+02 3.8850727616e+02 5.4183004588e+01 0.0000e+00 0.0000e+00
        5  1    3    3  501    0 -1.2750542801e+02 -7.7710276831e+01 -3.2990953786e+02 3.6215868686e+02 4.7000000000e+00 0.0000e+00 -1.0000e+00
      -13  1    4    4    0    0 -1.1832168204e+02 +3.9614588169e+01 -2.7664027817e+02 3.0347846636e+02 0.0000000000e+00 0.0000e+00 1.0000e+00
       14  1    4    4    0    0 +5.8721733175e+00 +8.1440034857e+00 -9.2299613274e-01 1.0082615440e+01 0.0000000000e+00 0.0000e+00 -1.0000e+00
       -5  1    5    5    0  502 +1.8836684698e+01 -2.0244828452e+01 +1.8220685901e+01 3.3447827495e+01 4.7000000000e+00 0.0000e+00 1.0000e+00
       13  1    6    6    0    0 +2.0846217229e+02 +4.8498104189e+01 -1.4667298628e+02 2.5946388629e+02 0.0000000000e+00 0.0000e+00 -1.0000e+00
      -14  1    6    6    0    0 +7.8409513773e+01 +1.7866097797e+01 -1.0092049926e+02 1.2904338988e+02 0.0000000000e+00 0.0000e+00 1.0000e+00
       21  1    1    2  504  503 -6.5753434019e+01 -1.6167688358e+01 +6.5451095650e+02 6.5800417963e+02 0.0000000000e+00 0.0000e+00 -1.0000e+00
<mgrwt>
<rscale>  3 0.31138522E+03</rscale>
<asrwt>0</asrwt>
<pdfrwt beam="1">  1       21 0.12102649E+00 0.31168747E+03</pdfrwt>
<pdfrwt beam="2">  1       21 0.14907798E+00 0.31168747E+03</pdfrwt>
<totfact> 0.13885510E+02</totfact>
</mgrwt>
</event>
<event>
13      2 +1.4674046e+01 1.73570100e+02 7.54677100e-03 1.17422600e-01
       21 -1    0    0  503  502 +0.0000000000e+00 +0.0000000000e+00 +2.1432047115e+02 2.1432047115e+02 0.0000000000e+00 0.0000e+00 1.0000e+00
       21 -1    0    0  504  503 -0.0000000000e+00 -0.0000000000e+00 -9.7545035555e+02 9.7545035555e+02 0.0000000000e+00 0.0000e+00 1.0000e+00
        6  2    1    2  501    0 -4.7747406171e+00 -1.2488209778e+01 +1.4097439796e+02 2.2376651075e+02 1.7325968060e+02 0.0000e+00 0.0000e+00
       24  2    3    3    0    0 -1.7870348838e+01 +5.4390262349e+01 +5.1488561867e+01 1.1118751692e+02 8.0211856422e+01 0.0000e+00 0.0000e+00
       -6  2    1    2    0  502 -1.0740752195e+01 -3.6980811516e+00 -2.0492196954e+02 2.6846155465e+02 1.7305939201e+02 0.0000e+00 0.0000e+00
      -24  2    5    5    0    0 -2.7543247076e+01 +6.0659104467e+01 -1.0289527372e+02 1.4657756130e+02 8.0370309870e+01 0.0000e+00 0.0000e+00
        5  1    3    3  501    0 +1.3095608221e+01 -6.6878472127e+01 +8.9485836092e+01 1.1257899382e+02 4.7000000000e+00 0.0000e+00 -1.0000e+00
      -13  1    4    4    0    0 -3.5007784569e+01 +1.8257936641e+01 -7.2351106101e+00 4.0140304637e+01 0.0000000000e+00 0.0000e+00 1.0000e+00
       14  1    4    4    0    0 +1.7137435732e+01 +3.6132325709e+01 +5.8723672477e+01 7.1047212287e+01 0.0000000000e+00 0.0000e+00 -1.0000e+00
       -5  1    5    5    0  502 +1.6802494881e+01 -6.4357185619e+01 -1.0202669583e+02 1.2188399336e+02 4.7000000000e+00 0.0000e+00 1.0000e+00
       13  1    6    6    0    0 +3.0482351740e+00 +4.3224974814e+01 -1.0258952221e+02 1.1136561521e+02 0.0000000000e+00 0.0000e+00 -1.0000e+00
      -14  1    6    6    0    0 -3.0591482250e+01 +1.7434129653e+01 -3.0575150954e-01 3.5211946084e+01 0.0000000000e+00 0.0000e+00 1.0000e+00
       21  1    1    2  504  501 +1.5515492812e+01 +1.6186290930e+01 -6.9718231282e+02 6.9754276130e+02 0.0000000000e+00 0.0000e+00 1.0000e+00
<mgrwt>
<rscale>  3 0.17352008E+03</rscale>
<asrwt>0</asrwt>
<pdfrwt beam="1">  1       21 0.32972380E-01 0.17357008E+03</pdfrwt>
<pdfrwt beam="2">  1       21 0.15006929E+00 0.17357008E+03</pdfrwt>
<totfact> 0.26923907E+03</totfact>
</mgrwt>
</event>
<event>
14      3 +1.4674046e+01 3.71875200e+02 7.54677100e-03 1.05399100e-01
       21 -1    0    0  501  502 +0.0000000000e+00 +0.0000000000e+00 +2.2176595011e+03 2.2176595011e+03 0.0000000000e+00 0.0000e+00 1.0000e+00
       21 -1    0    0  504  503 -0.0000000000e+00 -0.0000000000e+00 -1.7176052451e+02 1.7176052451e+02 0.0000000000e+00 0.0000e+00 1.0000e+00
        6  2    1    2  501    0 -2.6035409346e+02 +7.6241190696e+01 +1.3762764537e+03 1.4133520127e+03 1.7271381503e+02 0.0000e+00 0.0000e+00
       24  2    3    3    0    0 -5.0681659814e+01 +2.6998478315e+01 +3.1199579990e+02 3.2748702385e+02 8.1294668708e+01 0.0000e+00 0.0000e+00
       -6  2    1    2    0  505 +3.5152225214e+02 -5.1186872529e+01 +1.4526357465e+02 4.2097044806e+02 1.7299312804e+02 0.0000e+00 0.0000e+00
      -24  2    5    5    0    0 +3.1416197771e+02 -2.3859200327e+01 +1.7134340266e+02 3.6763341400e+02 8.0800716418e+01 0.0000e+00 0.0000e+00
        5  1    3    3  501    0 -2.0967243365e+02 +4.9242712381e+01 +1.0642806538e+03 1.0858649889e+03 4.7000000000e+00 0.0000e+00 -1.0000e+00
      -13  1    4    4    0    0 -7.2384550161e+01 +2.8412767740e+01 +2.4652383119e+02 2.5849721046e+02 0.0000000000e+00 0.0000e+00 1.0000e+00
       14  1    4    4    0    0 +2.1702890347e+01 -1.4142894253e+00 +6.5471968710e+01 6.8989813385e+01 0.0000000000e+00 0.0000e+00 -1.0000e+00
       -5  1    5    5    0  505 +3.7360274430e+01 -2.7327672202e+01 -2.6079828009e+01 5.3337034061e+01 4.7000000000e+00 0.0000e+00 1.0000e+00
       13  1    6    6    0    0 +6.3097235532e+01 -2.7400021935e+01 +6.6031636661e+01 9.5353024986e+01 0.0000000000e+00 0.0000e+00 -1.0000e+00
      -14  1    6    6    0    0 +2.5106474218e+02 +3.5408216081e+00 +1.0531176600e+02 2.7228038901e+02 0.0000000000e+00 0.0000e+00 1.0000e+00
       21  1    1    2  504  502 -7.0364510205e+01 -5.1421312462e+00 +5.2139656458e+02 5.2614825227e+02 0.0000000000e+00 0.0000e+00 1.0000e+00
       21  1    1    2  505  503 -2.0803648471e+01 -1.9912186921e+01 +2.9623836813e+00 2.8949312510e+01 0.0000000000e+00 0.0000e+00 1.0000e+00
<mgrwt>
<rscale>  4 0.37184276E+03</rscale>
<asrwt>0</asrwt>
<pdfrwt beam="1">  1       21 0.34117836E+00 0.37187522E+03</pdfrwt>
<pdfrwt beam="2">  1       21 0.26424698E-01 0.37187522E+03</pdfrwt>
<totfact> 0.21966119E+02</totfact>
</mgrwt>
</event>
<event>
12      1 +1.4674046e+01 2.06255800e+02 7.54677100e-03 1.14456600e-01
        1 -1    0    0  502    0 +0.0000000000e+00 +0.0000000000e+00 +1.2318763245e+03 1.2318763245e+03 0.0000000000e+00 0.0000e+00 1.0000e+00
       -1 -1    0    0    0  501 -0.0000000000e+00 -0.0000000000e+00 -5.7601781984e+01 5.7601781984e+01 0.0000000000e+00 0.0000e+00 -1.0000e+00
        6  2    1    2  502    0 +1.0971096285e+02 -2.1142716480e+01 +1.7839773854e+02 2.7237958344e+02 1.7286229933e+02 0.0000e+00 0.0000e+00
       24  2    3    3    0    0 +1.3169260698e+02 +6.5964998505e+00 +1.7873242725e+02 2.3667441830e+02 8.1749881842e+01 0.0000e+00 0.0000e+00
       -6  2    1    2    0  501 -1.0971096285e+02 +2.1142716480e+01 +9.9587680399e+02 1.0170985231e+03 1.7388296940e+02 0.0000e+00 0.0000e+00
      -24  2    5    5    0    0 -1.9406663011e+01 +2.2792265161e+01 +7.6926056107e+02 7.7310139369e+02 7.0907321183e+01 0.0000e+00 0.0000e+00
        5  1    3    3  502    0 -2.1981644128e+01 -2.7739216331e+01 -3.3468871467e-01 3.5705165141e+01 4.7000000000e+00 0.0000e+00 -1.0000e+00
      -13  1    4    4    0    0 +9.5900767461e+01 +2.0040735156e+01 +1.7186556812e+02 1.9782912265e+02 0.0000000000e+00 0.0000e+00 1.0000e+00
       14  1    4    4    0    0 +3.5791839519e+01 -1.3444235305e+01 +6.8668591308e+00 3.8845295641e+01 0.0000000000e+00 0.0000e+00 -1.0000e+00
       -5  1    5    5    0  501 -9.0304299841e+01 -1.6495486813e+00 +2.2661624292e+02 2.4399712936e+02 4.7000000000e+00 0.0000e+00 1.0000e+00
       13  1    6    6    0    0 -1.7343903957e+01 -2.6679839717e+00 +4.3703780580e+01 4.7095112060e+01 0.0000000000e+00 0.0000e+00 -1.0000e+00
      -14  1    6    6    0    0 -2.0627590535e+00 +2.5460249133e+01 +7.2555678049e+02 7.2600628164e+02 0.0000000000e+00 0.0000e+00 1.0000e+00
<mgrwt>
<rscale>  2 0.20625584E+03</rscale>
<asrwt>0</asrwt>
<pdfrwt beam="1">  1        1 0.18951941E+00 0.20625584E+03</pdfrwt>
<pdfrwt beam="2">  1       -1 0.88618135E-02 0.20625584E+03</pdfrwt>
<totfact> 0.80506828E+02</totfact>
</mgrwt>
</event>
<event>
13      2 +1.4674046e+01 2.61318900e+02 7.54677100e-03 1.10642700e-01
       21 -1    0    0  503  502 +0.0000000000e+00 +0.0000000000e+00 +2.2883932322e+02 2.2883932322e+02 0.0000000000e+00 0.0000e+00 1.0000e+00
       21 -1    0    0  501  503 -0.0000000000e+00 -0.0000000000e+00 -7.1765279090e+02 7.1765279090e+02 0.0000000000e+00 0.0000e+00 1.0000e+00
        6  2    1    2  501    0 -1.0741243094e+02 -1.5106888676e+02 -7.1829404293e+01 2.6393127267e+02 1.7361167733e+02 0.0000e+00 0.0000e+00
       24  2    3    3    0    0 -7.6927711474e+01 -9.4059719873e+01 +2.4216111945e+01 1.4805981622e+02 8.1056680211e+01 0.0000e+00 0.0000e+00
       -6  2    1    2    0  504 +9.5221741225e+01 +1.7465246153e+02 -5.1634540583e+02 5.7971399277e+02 1.7287299666e+02 0.0000e+00 0.0000e+00
      -24  2    5    5    0    0 +1.2762814016e+02 +1.5640174879e+02 -3.7248306593e+02 4.3104750008e+02 7.9422060770e+01 0.0000e+00 0.0000e+00
        5  1    3    3  501    0 -3.0484719465e+01 -5.7009166889e+01 -9.6045516238e+01 1.1587145645e+02 4.7000000000e+00 0.0000e+00 -1.0000e+00
      -13  1    4    4    0    0 -7.9317568722e+01 -9.6150172800e+01 +1.0208057807e+00 1.2464820288e+02 0.0000000000e+00 0.0000e+00 1.0000e+00
       14  1    4    4    0    0 +2.3898572485e+00 +2.0904529270e+00 +2.3195306164e+01 2.3411613339e+01 0.0000000000e+00 0.0000e+00 -1.0000e+00
       -5  1    5    5    0  504 -3.2406398930e+01 +1.8250712734e+01 -1.4386233990e+02 1.4866649269e+02 4.7000000000e+00 0.0000e+00 1.0000e+00
       13  1    6    6    0    0 +1.3302049321e+02 +1.1839932337e+02 -2.9512789703e+02 3.4469309101e+02 0.0000000000e+00 0.0000e+00 -1.0000e+00
      -14  1    6    6    0    0 -5.3923530563e+00 +3.8002425424e+01 -7.7355168900e+01 8.6354409066e+01 0.0000000000e+00 0.0000e+00 1.0000e+00
       21  1    1    2  504  502 +1.2190689713e+01 -2.3583574765e+01 +9.9361342436e+01 1.0284684869e+02 0.0000000000e+00 0.0000e+00 1.0000e+00
<mgrwt>
<rscale>  3 0.26119622E+03</rscale>
<asrwt>0</asrwt>
<pdfrwt beam="1">  1       21 0.35206050E-01 0.26131885E+03</pdfrwt>
<pdfrwt beam="2">  1       21 0.11040812E+00 0.26131885E+03</pdfrwt>
<totfact> 0.47960843E+03</totfact>
</mgrwt>
</event>
<event>
13      2 +1.4674046e+01 2.47008000e+02 7.54677100e-03 1.11545700e-01
       21 -1    0    0  504  502 +0.0000000000e+00 +0.0000000000e+00 +6.8712494776e+02 6.8712494776e+02 0.0000000000e+00 0.0000e+00 1.0000e+00
       21 -1    0    0  501  503 -0.0000000000e+00 -0.0000000000e+00 -8.2664113250e+02 8.2664113250e+02 0.0000000000e+00 0.0000e+00 -1.0000e+00
        6  2    1    2  501    0 +4.2180505334e+01 +1.7234834337e+02 -4.8246628474e+02 5.4174796313e+02 1.7097951090e+02 0.0000e+00 0.0000e+00
       24  2    3    3    0    0 +2.6823479885e+01 +1.8046789252e+02 -4.8426522189e+02 5.2366229245e+02 8.0132590773e+01 0.0000e+00 0.0000e+00
       -6  2    1    2    0  502 -6.2170410876e+01 -1.6480267514e+02 +6.3387945329e+02 6.8030520683e+02 1.7316735092e+02 0.0000e+00 0.0000e+00
      -24  2    5    5    0    0 -4.4554467020e+00 -9.7596610873e+01 +1.8443614795e+02 2.2219054119e+02 7.6203638136e+01 0.0000e+00 0.0000e+00
        5  1    3    3  501    0 +1.5357025449e+01 -8.1195491463e+00 +1.7989371441e+00 1.8085670677e+01 4.7000000000e+00 0.0000e+00 -1.0000e+00
      -13  1    4    4    0    0 +3.3837705922e+01 +2.2189878841e+01 -1.1198618699e+02 1.1907261290e+02 0.0000000000e+00 0.0000e+00 1.0000e+00
       14  1    4    4    0    0 -7.0142260376e+00 +1.5827801368e+02 -3.7227903490e+02 4.0458967956e+02 0.0000000000e+00 0.0000e+00 -1.0000e+00
       -5  1    5    5    0  502 -5.7714964174e+01 -6.7206064266e+01 +4.4944330534e+02 4.5811466564e+02 4.7000000000e+00 0.0000e+00 1.0000e+00
       13  1    6    6    0    0 +2.4657312939e+01 -3.3104344881e+01 +1.1845773317e+02 1.2544367373e+02 0.0000000000e+00 0.0000e+00 -1.0000e+00
      -14  1    6    6    0    0 -2.9112759641e+01 -6.4492265992e+01 +6.5978414783e+01 9.6746867464e+01 0.0000000000e+00 0.0000e+00 1.0000e+00
       21  1    1    2  504  503 +1.9989905542e+01 -7.5456682314e+00 -2.9092935328e+02 2.9171291030e+02 0.0000000000e+00 0.0000e+00 -1.0000e+00
<mgrwt>
<rscale>  3 0.24662487E+03</rscale>
<asrwt>0</asrwt>
<pdfrwt beam="1">  1       21 0.10571153E+00 0.24700797E+03</pdfrwt>
<pdfrwt beam="2">  1       21 0.12717556E+00 0.24700797E+03</pdfrwt>
<totfact> 0.30990215E+02</totfact>
</mgrwt>
</event>
<event>
13      2 +1.4674046e+01 2.62380500e+02 7.54677100e-03 1.10572300e-01
       21 -1    0    0  501  502 +0.0000000000e+00 +0.0000000000e+00 +2.2602218055e+03 2.2602218055e+03 0.0000000000e+00 0.0000e+00 1.0000e+00
       21 -1    0    0  502  503 -0.0000000000e+00 -0.0000000000e+00 -4.2094370227e+01 4.2094370227e+01 0.0000000000e+00 0.0000e+00 1.0000e+00
        6  2    1    2  501    0 -1.4550937613e+02 -1.4327634375e+02 +1.6309336515e+03 1.6527603914e+03 1.7312205666e+02 0.0000e+00 0.0000e+00
       24  2    3    3    0    0 -1.5390926102e+02 -6.5526511722e+01 +9.8735635269e+02 1.0044322152e+03 7.7651293794e+01 0.0000e+00 0.0000e+00
       -6  2    1    2    0  504 +1.2053940665e+02 +1.3179794026e+02 +5.0603727133e+02 5.6387245671e+02 1.7314150818e+02 0.0000e+00 0.0000e+00
      -24  2    5    5    0    0 +1.3183103091e+02 +4.5733815312e+01 +3.3469046006e+02 3.7173616625e+02 8.1847850742e+01 0.0000e+00 0.0000e+00
        5  1    3    3  501    0 +8.3998848960e+00 -7.7749832028e+01 +6.4357729882e+02 6.4832817616e+02 4.7000000000e+00 0.0000e+00 -1.0000e+00
      -13  1    4    4    0    0 -1.1922154605e+02 -8.0670583015e+01 +8.4269150654e+02 8.5489794432e+02 0.0000000000e+00 0.0000e+00 1.0000e+00
       14  1    4    4    0    0 -3.4687714970e+01 +1.5144071293e+01 +1.4466484615e+02 1.4953427091e+02 0.0000000000e+00 0.0000e+00 -1.0000e+00
       -5  1    5    5    0  504 -1.1291624257e+01 +8.6064124943e+01 +1.7134681127e+02 1.9213629046e+02 4.7000000000e+00 0.0000e+00 1.0000e+00
       13  1    6    6    0    0 +3.4043142431e+01 +4.3451638706e+01 +1.8384371076e+02 1.9195179197e+02 0.0000000000e+00 0.0000e+00 -1.0000e+00
      -14  1    6    6    0    0 +9.7787888478e+01 +2.2821766064e+00 +1.5084674929e+02 1.7978437428e+02 0.0000000000e+00 0.0000e+00 1.0000e+00
       21  1    1    2  504  503 +2.4969969473e+01 +1.1478403495e+01 +8.1156512454e+01 8.5683327643e+01 0.0000000000e+00 0.0000e+00 -1.0000e+00
<mgrwt>
<rscale>  3 0.26237731E+03</rscale>
<asrwt>0</asrwt>
<pdfrwt beam="1">  1       21 0.34772634E+00 0.26238052E+03</pdfrwt>
<pdfrwt beam="2">  1       21 0.64760587E-02 0.26238052E+03</pdfrwt>
<totfact> 0.28820643E+03</totfact>
</mgrwt>
</event>
<event>
12      1 +1.4674046e+01 1.73086900e+02 7.54677100e-03 1.17469000e-01
       21 -1    0    0  501  502 +0.0000000000e+00 +0.0000000000e+00 +3.8064259626e+02 3.8064259626e+02 0.0000000000e+00 0.0000e+00 -1.0000e+00
       21 -1    0    0  502  503 -0.0000000000e+00 -0.0000000000e+00 -1.5242077869e+02 1.5242077869e+02 0.0000000000e+00 0.0000e+00 -1.0000e+00
       -6  2    1    2    0  503 -9.9973944283e+00 -2.3275443746e+00 -7.1281063306e+01 1.8718994455e+02 1.7278229075e+02 0.0000e+00 0.0000e+00
      -24  2    3    3    0    0 -3.0530467986e+01 +3.7066993764e+01 -9.7655592200e+01 1.3531275766e+02 8.0416765642e+01 0.0000e+00 0.0000e+00
        6  2    1    2  501    0 +9.9973944283e+00 +2.3275443746e+00 +2.9950288088e+02 3.4587343040e+02 1.7268783641e+02 0.0000e+00 0.0000e+00
       24  2    5    5    0    0 -2.2644267763e+01 -5.2344200537e+01 +1.2807667440e+02 1.6294308281e+02 8.3030931084e+01 0.0000e+00 0.0000e+00
        5  1    5    5  501    0 +3.2641662191e+01 +5.4671744912e+01 +1.7142620648e+02 1.8293034759e+02 4.7000000000e+00 0.0000e+00 -1.0000e+00
      -13  1    6    6    0    0 +3.0338682076e+01 -1.1539561573e+01 +2.9752105443e+01 4.4031635101e+01 0.0000000000e+00 0.0000e+00 1.0000e+00
       14  1    6    6    0    0 -5.2982949839e+01 -4.0804638964e+01 +9.8324568956e+01 1.1891144770e+02 0.0000000000e+00 0.0000e+00 -1.0000e+00
       -5  1    3    3    0  503 +2.0533073558e+01 -3.9394538139e+01 +2.6374528894e+01 5.1877186886e+01 4.7000000000e+00 0.0000e+00 1.0000e+00
       13  1    4    4    0    0 -4.0571570351e+01 +1.0074997225e+01 -9.7965470823e+01 1.0651193062e+02 0.0000000000e+00 0.0000e+00 -1.0000e+00
      -14  1    4    4    0    0 +1.0041102365e+01 +2.6991996539e+01 +3.0987862350e-01 2.8800827047e+01 0.0000000000e+00 0.0000e+00 1.0000e+00
<mgrwt>
<rscale>  2 0.17306335E+03</rscale>
<asrwt>0</asrwt>
<pdfrwt beam="1">  1       21 0.58560399E-01 0.17308693E+03</pdfrwt>
<pdfrwt beam="2">  1       21 0.23449351E-01 0.17308693E+03</pdfrwt>
<totfact> 0.47151592E+04</totfact>
</mgrwt>
</event>
<event>
12      1 +1.4674046e+01 1.94591300e+02 7.54677100e-03 1.15445200e-01
       21 -1    0    0  501  502 +0.0000000000e+00 +0.0000000000e+00 +3.8076081790e+02 3.8076081790e+02 0.0000000000e+00 0.0000e+00 -1.0000e+00
       21 -1    0    0  502  503 -0.0000000000e+00 -0.0000000000e+00 -1.6124672319e+02 1.6124672319e+02 0.0000000000e+00 0.0000e+00 -1.0000e+00
       -6  2    1    2    0  503 +1.9923413901e+01 +7.9777538243e+01 -5.8175164182e+01 2.0310124734e+02 1.7636430737e+02 0.0000e+00 0.0000e+00
      -24  2    3    3    0    0 +5.4265725818e+01 +4.9413816219e+01 -9.5085086707e+01 1.4406073258e+02 7.9535066008e+01 0.0000e+00 0.0000e+00
        6  2    1    2  501    0 -1.9923413901e+01 -7.9777538243e+01 +2.7768925890e+02 3.3890629375e+02 1.7602486588e+02 0.0000e+00 0.0000e+00
       24  2    5    5    0    0 +3.7244373555e+01 -6.1633604210e+01 +8.5593794509e+01 1.3761020411e+02 8.0152517665e+01 0.0000e+00 0.0000e+00
        5  1    5    5  501    0 -5.7167787456e+01 -1.8143934033e+01 +1.9209546439e+02 2.0129608964e+02 4.7000000000e+00 0.0000e+00 -1.0000e+00
      -13  1    6    6    0    0 -4.2001691274e+00 -6.1736341447e+01 +3.1413659590e+01 6.9396219528e+01 0.0000000000e+00 0.0000e+00 1.0000e+00
       14  1    6    6    0    0 +4.1444542682e+01 +1.0273723676e-01 +5.4180134919e+01 6.8213984585e+01 0.0000000000e+00 0.0000e+00 -1.0000e+00
       -5  1    3    3    0  503 -3.4342311916e+01 +3.0363722025e+01 +3.6909922525e+01 5.9040514765e+01 4.7000000000e+00 0.0000e+00 1.0000e+00
       13  1    4    4    0    0 +2.4747931921e+01 +6.7951722172e+01 -5.4452639560e+01 9.0526165475e+01 0.0000000000e+00 0.0000e+00 -1.0000e+00
      -14  1    4    4    0    0 +2.9517793897e+01 -1.8537905954e+01 -4.0632447148e+01 5.3534567103e+01 0.0000000000e+00 0.0000e+00 1.0000e+00
<mgrwt>
<rscale>  2 0.19451434E+03</rscale>
<asrwt>0</asrwt>
<pdfrwt beam="1">  1       21 0.58578587E-01 0.19459128E+03</pdfrwt>
<pdfrwt beam="2">  1       21 0.24807188E-01 0.19459128E+03</pdfrwt>
<totfact> 0.41893058E+04</totfact>
</mgrwt>
</event>
<event>
13      2 +1.4674046e+01 2.30923200e+02 7.54677100e-03 1.12601600e-01
       21 -1    0    0  503  502 +0.0000000000e+00 +0.0000000000e+00 +5.2899469651e+01 5.2899469651e+01 0.0000000000e+00 0.0000e+00 1.0000e+00
       21 -1    0    0  501  503 -0.0000000000e+00 -0.0000000000e+00 -1.1068009491e+03 1.1068009491e+03 0.0000000000e+00 0.0000e+00 -1.0000e+00
        6  2    1    2  501    0 -1.5202880417e+02 -1.7051817171e+01 -7.0053857686e+02 7.3757381858e+02 1.7279270358e+02 0.0000e+00 0.0000e+00
       24  2    3    3    0    0 -7.2544175687e+01 +5.1748921609e+01 -4.4945148767e+02 4.6532730496e+02 8.1131083139e+01 0.0000e+00 0.0000e+00
       -6  2    1    2    0  502 +1.5202880417e+02 +1.7051817171e+01 -3.5336290260e+02 4.2212660019e+02 1.7297977883e+02 0.0000e+00 0.0000e+00
      -24  2    5    5    0    0 +5.1350280502e+01 +4.2325646537e+01 -2.3848363917e+02 2.6050028815e+02 8.0979270862e+01 0.0000e+00 0.0000e+00
        5  1    3    3  501    0 -7.9484628482e+01 -6.8800738780e+01 -2.5108708919e+02 2.7224651362e+02 4.7000000000e+00 0.0000e+00 -1.0000e+00
      -13  1    4    4    0    0 -7.7121500498e+01 +2.7309140509e+01 -4.1411535054e+02 4.2211969694e+02 0.0000000000e+00 0.0000e+00 1.0000e+00
       14  1    4    4    0    0 +4.5773248106e+00 +2.4439781100e+01 -3.5336137135e+01 4.3207608014e+01 0.0000000000e+00 0.0000e+00 -1.0000e+00
       -5  1    5    5    0  504 +8.0117777615e+01 -2.1991582446e+01 -1.1353084984e+02 1.4076161357e+02 4.7000000000e+00 0.0000e+00 1.0000e+00
       13  1    6    6    0    0 +5.5169629365e+01 +1.0741686488e+01 -2.1132131582e+02 2.1866817407e+02 0.0000000000e+00 0.0000e+00 -1.0000e+00
      -14  1    6    6    0    0 -3.8193488632e+00 +3.1583960048e+01 -2.7162323358e+01 4.1832114079e+01 0.0000000000e+00 0.0000e+00 1.0000e+00
       21  1    5    5  504  502 +2.0560746053e+01 -3.2822469188e+00 -1.3484135844e+00 2.0864698471e+01 0.0000000000e+00 0.0000e+00 1.0000e+00
<mgrwt>
<rscale>  3 0.23088817E+03</rscale>
<asrwt>0</asrwt>
<pdfrwt beam="1">  1       21 0.81383802E-02 0.23092320E+03</pdfrwt>
<pdfrwt beam="2">  1       21 0.17027706E+00 0.23092320E+03</pdfrwt>
<totfact> 0.24135397E+04</totfact>
</mgrwt>
</event>
<event>
13      3 +1.4674046e+01 9.00876300e+02 7.54677100e-03 9.77602500e-02
       21 -1    0    0  504  503 +0.0000000000e+00 +0.0000000000e+00 +1.2210805048e+03 1.2210805048e+03 0.0000000000e+00 0.0000e+00 -1.0000e+00
        2 -1    0    0  503    0 -0.0000000000e+00 -0.0000000000e+00 -1.9045043758e+03 1.9045043758e+03 0.0000000000e+00 0.0000e+00 -1.0000e+00
       -6  2    1    2    0  502 +1.6058737044e+02 -1.4545064263e+02 -2.2269794805e+02 3.5206565739e+02 1.6556466428e+02 0.0000e+00 0.0000e+00
      -24  2    3    3    0    0 +7.5369854050e+01 -9.2026258216e+01 -4.8612261040e+01 1.5095845619e+02 7.9220303405e+01 0.0000e+00 0.0000e+00
       24  2    1    2    0    0 +2.3813515991e+02 +2.9789086184e+02 -5.8654425392e+01 3.9432400958e+02 8.1263540186e+01 0.0000e+00 0.0000e+00
        5  1    1    2  501    0 -3.5066268948e+02 -1.2064668678e+02 -6.6151432076e+02 7.5838198251e+02 4.7000000000e+00 0.0000e+00 -1.0000e+00
      -13  1    5    5    0    0 +1.8427328834e+02 +2.7415280175e+02 -4.0938281420e+01 3.3285484282e+02 0.0000000000e+00 0.0000e+00 1.0000e+00
       14  1    5    5    0    0 +5.3861871567e+01 +2.3738060095e+01 -1.7716143972e+01 6.1469166766e+01 0.0000000000e+00 0.0000e+00 -1.0000e+00
       -5  1    3    3    0  502 +8.5217516386e+01 -5.3424384418e+01 -1.7408568701e+02 2.0110720120e+02 4.7000000000e+00 0.0000e+00 1.0000e+00
       13  1    4    4    0    0 -1.5610619610e+01 -4.2527664268e+00 -8.8076845471e+00 1.8421530174e+01 0.0000000000e+00 0.0000e+00 -1.0000e+00
      -14  1    4    4    0    0 +9.0980473660e+01 -8.7773491789e+01 -3.9804576493e+01 1.3253692602e+02 0.0000000000e+00 0.0000e+00 1.0000e+00
       21  1    1    2  504  501 +1.9811034408e+00 -2.3711981518e+01 +9.3903342264e+02 9.3933484534e+02 0.0000000000e+00 0.0000e+00 -1.0000e+00
        2  1    1    2  502    0 -5.0040944308e+01 -8.0815509052e+00 -6.7959059939e+02 6.8147838582e+02 0.0000000000e+00 0.0000e+00 -1.0000e+00
<mgrwt>
<rscale>  4 0.66665194E+03</rscale>
<asrwt>0</asrwt>
<pdfrwt beam="1">  1       21 0.18785854E+00 0.90087634E+03</pdfrwt>
<pdfrwt beam="2">  1        2 0.29300067E+00 0.90087634E+03</pdfrwt>
<totfact> 0.11907233E+01</totfact>
</mgrwt>
</event>
<event>
13      2 +1.4674046e+01 2.13772000e+02 7.54677100e-03 1.13872800e-01
       21 -1    0    0  503  502 +0.0000000000e+00 +0.0000000000e+00 +4.1443366231e+02 4.1443366231e+02 0.0000000000e+00 0.0000e+00 1.0000e+00
       21 -1    0    0  501  503 -0.0000000000e+00 -0.0000000000e+00 -1.1235992198e+02 1.1235992198e+02 0.0000000000e+00 0.0000e+00 1.0000e+00
        6  2    1    2  501    0 -1.2186511544e+02 +2.8637215351e+01 +1.1276831232e+02 2.4169232442e+02 1.7328384506e+02 0.0000e+00 0.0000e+00
       24  2    3    3    0    0 -4.3886093473e+01 +4.5880130366e+01 +1.2409003630e+02 1.6089432062e+02 8.0359627516e+01 0.0000e+00 0.0000e+00
       -6  2    1    2    0  502 +1.2186511544e+02 -2.8637215351e+01 +1.8930542802e+02 2.8510125987e+02 1.7255430113e+02 0.0000e+00 0.0000e+00
      -24  2    5    5    0    0 +1.0261385541e+02 -3.2724995877e+01 +1.9992744748e+02 2.4110197692e+02 8.0985494634e+01 0.0000e+00 0.0000e+00
        5  1    3    3  501    0 -7.7979021962e+01 -1.7242915015e+01 -1.1321723986e+01 8.0798003802e+01 4.7000000000e+00 0.0000e+00 -1.0000e+00
      -13  1    4    4    0    0 +2.3498674838e+01 +1.3360224652e+01 +4.0691398806e+01 4.8851543053e+01 0.0000000000e+00 0.0000e+00 1.0000e+00
       14  1    4    4    0    0 -6.7384768311e+01 +3.2519905715e+01 +8.3398637499e+01 1.1204277757e+02 0.0000000000e+00 0.0000e+00 -1.0000e+00
       -5  1    5    5    0  504 -4.4341969445e-01 -1.2991028394e+01 -1.1403511709e+01 1.7919082539e+01 4.7000000000e+00 0.0000e+00 1.0000e+00
       13  1    6    6    0    0 +3.4548348495e+01 +2.1726432606e+01 +3.1859639719e+01 5.1775118547e+01 0.0000000000e+00 0.0000e+00 -1.0000e+00
      -14  1    6    6    0    0 +6.8065506916e+01 -5.4451428483e+01 +1.6806780776e+02 1.8932685837e+02 0.0000000000e+00 0.0000e+00 1.0000e+00
       21  1    5    5  504  502 +1.9694679719e+01 +1.7078808920e+01 +7.8149224489e-01 2.6080200411e+01 0.0000000000e+00 0.0000e+00 -1.0000e+00
<mgrwt>
<rscale>  3 0.21362416E+03</rscale>
<asrwt>0</asrwt>
<pdfrwt beam="1">  1       21 0.63759024E-01 0.21377205E+03</pdfrwt>
<pdfrwt beam="2">  1       21 0.17286142E-01 0.21377205E+03</pdfrwt>
<totfact> 0.68108282E+04</totfact>
</mgrwt>
</event>
<event>
13      2 +1.4674046e+01 1.96370300e+02 7.54677100e-03 1.15314800e-01
       21 -1    0    0  501  502 +0.0000000000e+00 +0.0000000000e+00 +9.4035599551e+01 9.4035599551e+01 0.0000000000e+00 0.0000e+00 1.0000e+00
       21 -1    0    0  502  503 -0.0000000000e+00 -0.0000000000e+00 -6.0492427483e+02 6.0492427483e+02 0.0000000000e+00 0.0000e+00 1.0000e+00
       -6  2    1    2    0  503 +9.1464161636e+01 +7.1692804395e+00 -4.5592966695e+02 4.9642034096e+02 1.7362085782e+02 0.0000e+00 0.0000e+00
      -24  2    3    3    0    0 +1.3861224743e+01 -3.4811697608e+01 -1.1494758273e+02 1.4295981881e+02 7.6292694121e+01 0.0000e+00 0.0000e+00
        6  2    1    2  501    0 -9.1464161636e+01 -7.1692804395e+00 -5.4959008324e+01 2.0253953342e+02 1.7200197253e+02 0.0000e+00 0.0000e+00
       24  2    5    5    0    0 -1.1417861225e+02 +1.3140873341e+01 -8.1262077614e+01 1.6201312144e+02 8.0220248154e+01 0.0000e+00 0.0000e+00
        5  1    5    5  501    0 +2.2714450614e+01 -2.0310153780e+01 +2.6303069290e+01 4.0526411972e+01 4.7000000000e+00 0.0000e+00 -1.0000e+00
      -13  1    6    6    0    0 -2.4780387576e+01 +1.5835713300e+01 +1.2928104630e+01 3.2124341448e+01 0.0000000000e+00 0.0000e+00 1.0000e+00
       14  1    6    6    0    0 -8.9398224674e+01 -2.6948399588e+00 -9.4190182245e+01 1.2988878000e+02 0.0000000000e+00 0.0000e+00 -1.0000e+00
       -5  1    3    3    0  504 +3.0448109863e+01 +1.8253475907e+01 -1.9421678273e+02 1.9749057059e+02 4.7000000000e+00 0.0000e+00 1.0000e+00
       13  1    4    4    0    0 -2.5082333564e+01 -1.6038297804e+01 -8.5802479068e+01 9.0820789843e+01 0.0000000000e+00 0.0000e+00 -1.0000e+00
      -14  1    4    4    0    0 +3.8943558307e+01 -1.8773399804e+01 -2.9145103660e+01 5.2139028963e+01 0.0000000000e+00 0.0000e+00 1.0000e+00
       21  1    3    3  504  503 +4.7154827030e+01 +2.3727502140e+01 -1.4676530149e+02 1.5596995157e+02 0.0000000000e+00 0.0000e+00 1.0000e+00
<mgrwt>
<rscale>  3 0.19601185E+03</rscale>
<asrwt>0</asrwt>
<pdfrwt beam="1">  1       21 0.14467016E-01 0.19637030E+03</pdfrwt>
<pdfrwt beam="2">  1       21 0.93065272E-01 0.19637030E+03</pdfrwt>
<totfact> 0.40641093E+04</totfact>
</mgrwt>
</event>
<event>
13      2 +1.4674046e+01 3.29769300e+02 7.54677100e-03 1.07144800e-01
       21 -1    0    0  502  503 +0.0000000000e+00 +0.0000000000e+00 +6.1405875518e+02 6.1405875518e+02 0.0000000000e+00 0.0000e+00 -1.0000e+00
        1 -1    0    0  501    0 -0.0000000000e+00 -0.0000000000e+00 -4.2745104501e+02 4.2745104501e+02 0.0000000000e+00 0.0000e+00 -1.0000e+00
        6  2    1    2  501    0 -2.0753601021e+02 +2.4436181547e+02 +4.2872494956e+01 3.6880271091e+02 1.7718209942e+02 0.0000e+00 0.0000e+00
       24  2    3    3    0    0 -3.4361620521e+01 +7.2980836159e+01 -2.3759930166e+01 1.1617100389e+02 8.0151384588e+01 0.0000e+00 0.0000e+00
       -6  2    1    2    0  503 +1.4419154220e+02 -2.1959265186e+02 +3.4092928880e+02 4.6411290012e+02 1.7365445720e+02 0.0000e+00 0.0000e+00
      -24  2    5    5    0    0 +1.2895208284e+02 -7.8338130787e+01 +1.6205841263e+02 2.3563541505e+02 8.0595392649e+01 0.0000e+00 0.0000e+00
        5  1    3    3  501    0 -1.7317438969e+02 +1.7138097931e+02 +6.6632425121e+01 2.5263170702e+02 4.7000000000e+00 0.0000e+00 -1.0000e+00
      -13  1    4    4    0    0 +1.9878726768e+01 +5.1786784164e+01 -1.0812490224e+01 5.6514995681e+01 0.0000000000e+00 0.0000e+00 1.0000e+00
       14  1    4    4    0    0 -5.4240347290e+01 +2.1194051995e+01 -1.2947439942e+01 5.9656008206e+01 0.0000000000e+00 0.0000e+00 -1.0000e+00
       -5  1    5    5    0  503 +1.5239459359e+01 -1.4125452107e+02 +1.7887087616e+02 2.2847748507e+02 4.7000000000e+00 0.0000e+00 1.0000e+00
       13  1    6    6    0    0 +1.2674533267e+02 -8.9340959020e+01 +1.3231913054e+02 2.0384930370e+02 0.0000000000e+00 0.0000e+00 -1.0000e+00
      -14  1    6    6    0    0 +2.2067501735e+00 +1.1002828233e+01 +2.9739282090e+01 3.1786111349e+01 0.0000000000e+00 0.0000e+00 1.0000e+00
        1  1    1    2  502    0 +6.3344468014e+01 -2.4769163608e+01 -1.9719407359e+02 2.0859418916e+02 0.0000000000e+00 0.0000e+00 -1.0000e+00
<mgrwt>
<rscale>  3 0.32929781E+03</rscale>
<asrwt>0</asrwt>
<pdfrwt beam="1">  1       21 0.94470578E-01 0.32976928E+03</pdfrwt>
<pdfrwt beam="2">  1        1 0.65761699E-01 0.32976928E+03</pdfrwt>
<totfact> 0.53905935E+02</totfact>
</mgrwt>
</event>
<event>
14      3 +1.4674046e+01 3.13862400e+02 7.54677100e-03 1.09793800e-01
       21 -1    0    0  503  502 +0.0000000000e+00 +0.0000000000e+00 +9.6002331724e+02 9.6002331724e+02 0.0000000000e+00 0.0000e+00 1.0000e+00
       21 -1    0    0  505  503 -0.0000000000e+00 -0.0000000000e+00 -3.2191259503e+02 3.2191259503e+02 0.0000000000e+00 0.0000e+00 -1.0000e+00
        6  2    1    2  501    0 -5.7563005769e+01 -2.5523955716e+02 +5.0495114456e+02 5.9433152025e+02 1.7260812958e+02 0.0000e+00 0.0000e+00
       24  2    3    3    0    0 -6.5517063175e+01 -1.2822504451e+02 +3.8877493206e+02 4.2195125513e+02 7.8503288444e+01 0.0000e+00 0.0000e+00
       -6  2    1    2    0  502 -6.2835327090e+01 +2.1198054664e+01 +3.1042885650e+02 3.6264154370e+02 1.7534303070e+02 0.0000e+00 0.0000e+00
      -24  2    5    5    0    0 +1.5667362002e-01 +6.7336849202e+01 +1.5119185366e+02 1.8522876629e+02 8.3165157611e+01 0.0000e+00 0.0000e+00
        5  1    3    3  501    0 +7.9540574061e+00 -1.2701451265e+02 +1.1617621250e+02 1.7238026512e+02 4.7000000000e+00 0.0000e+00 -1.0000e+00
      -13  1    4    4    0    0 -4.4362815175e+01 -1.1389699673e+02 +2.2374930427e+02 2.5495947991e+02 0.0000000000e+00 0.0000e+00 1.0000e+00
       14  1    4    4    0    0 -2.1154248000e+01 -1.4328047777e+01 +1.6502562779e+02 1.6699177522e+02 0.0000000000e+00 0.0000e+00 -1.0000e+00
       -5  1    5    5    0  502 -6.2992000710e+01 -4.6138794538e+01 +1.5923700284e+02 1.7741277741e+02 4.7000000000e+00 0.0000e+00 1.0000e+00
       13  1    6    6    0    0 -1.5320420447e+01 -2.3631157862e+00 -2.5567585129e+00 1.5711034752e+01 0.0000000000e+00 0.0000e+00 -1.0000e+00
      -14  1    6    6    0    0 +1.5477094067e+01 +6.9699964988e+01 +1.5374861217e+02 1.6951773154e+02 0.0000000000e+00 0.0000e+00 1.0000e+00
       21  1    1    2  504  501 +1.2019173978e+02 +1.7301318939e+02 -1.4666104183e+02 2.5668868149e+02 0.0000000000e+00 0.0000e+00 -1.0000e+00
       21  1    1    2  505  504 +2.0659308232e-01 +6.1028313113e+01 -3.0608237022e+01 6.8274166826e+01 0.0000000000e+00 0.0000e+00 1.0000e+00
<mgrwt>
<rscale>  4 0.27592052E+03</rscale>
<asrwt>0</asrwt>
<pdfrwt beam="1">  1       21 0.14769589E+00 0.31386237E+03</pdfrwt>
<pdfrwt beam="2">  1       21 0.49525015E-01 0.31386237E+03</pdfrwt>
<totfact> 0.10973802E+03</totfact>
</mgrwt>
</event>
<event>
14      3 +1.4674046e+01 2.73508600e+02 7.54677100e-03 1.09951100e-01
       21 -1    0    0  501  502 +0.0000000000e+00 +0.0000000000e+00 +8.0222191368e+02 8.0222191368e+02 0.0000000000e+00 0.0000e+00 1.0000e+00
       21 -1    0    0  504  503 -0.0000000000e+00 -0.0000000000e+00 -3.6847887842e+02 3.6847887842e+02 0.0000000000e+00 0.0000e+00 -1.0000e+00
        6  2    1    2  501    0 +7.1407158242e+01 -1.7307825127e+02 -7.5903951603e+01 2.6561752433e+02 1.7244186282e+02 0.0000e+00 0.0000e+00
       24  2    3    3    0    0 +9.0515110654e+01 -1.0073519180e+02 +3.2408123884e+00 1.5660093951e+02 7.8567087687e+01 0.0000e+00 0.0000e+00
       -6  2    1    2    0  503 -1.1210658594e+02 +2.1795761104e+02 -1.5036699544e+01 3.0148887488e+02 1.7491721619e+02 0.0000e+00 0.0000e+00
      -24  2    5    5    0    0 -3.7529873142e+01 +1.9358020005e+02 +2.3688043072e+01 2.1386673185e+02 7.9347781180e+01 0.0000e+00 0.0000e+00
        5  1    3    3  501    0 -1.9107952413e+01 -7.2343059473e+01 -7.9144763992e+01 1.0901658482e+02 4.7000000000e+00 0.0000e+00 -1.0000e+00
      -13  1    4    4    0    0 +3.3045018066e+01 +3.4693695454e+00 -1.4557253810e+01 3.6275658264e+01 0.0000000000e+00 0.0000e+00 1.0000e+00
       14  1    4    4    0    0 +5.7470092588e+01 -1.0420456134e+02 +1.7798066198e+01 1.2032528125e+02 0.0000000000e+00 0.0000e+00 -1.0000e+00
       -5  1    5    5    0  503 -7.4576712799e+01 +2.4377410994e+01 -3.8724742616e+01 8.7622143031e+01 4.7000000000e+00 0.0000e+00 1.0000e+00
       13  1    6    6    0    0 +1.3628076994e+01 +2.7713328382e+01 -1.7463275476e+01 3.5478430672e+01 0.0000000000e+00 0.0000e+00 -1.0000e+00
      -14  1    6    6    0    0 -5.1157950136e+01 +1.6586687166e+02 +4.1151318548e+01 1.7838830117e+02 0.0000000000e+00 0.0000e+00 1.0000e+00
       21  1    1    2  504  505 +2.2830334241e+01 +1.1018457893e+01 -3.3680626319e+01 4.2154657692e+01 0.0000000000e+00 0.0000e+00 1.0000e+00
       21  1    1    2  505  502 +1.7869093459e+01 -5.5897817663e+01 +5.5836431273e+02 5.6143973519e+02 0.0000000000e+00 0.0000e+00 1.0000e+00
<mgrwt>
<rscale>  4 0.27311366E+03</rscale>
<asrwt>0</asrwt>
<pdfrwt beam="1">  1       21 0.12341876E+00 0.27350861E+03</pdfrwt>
<pdfrwt beam="2">  1       21 0.56689058E-01 0.27350861E+03</pdfrwt>
<totfact> 0.13468712E+03</totfact>
</mgrwt>
</event>
<event>
13      2 +1.4674046e+01 1.88234000e+02 7.54677100e-03 1.16072000e-01
       21 -1    0    0  501  502 +0.0000000000e+00 +0.0000000000e+00 +9.2313134077e+02 9.2313134077e+02 0.0000000000e+00 0.0000e+00 -1.0000e+00
       21 -1    0    0  504  503 -0.0000000000e+00 -0.0000000000e+00 -1.0728870370e+03 1.0728870370e+03 0.0000000000e+00 0.0000e+00 -1.0000e+00
       -6  2    1    2    0  503 -7.8446875333e+01 -2.3402813740e+01 +6.9431395868e+02 7.2004816249e+02 1.7232492317e+02 0.0000e+00 0.0000e+00
      -24  2    3    3    0    0 -1.0181566251e+02 +1.3827969534e+01 +3.6673449755e+02 3.8949918762e+02 8.1595242412e+01 0.0000e+00 0.0000e+00
        6  2    1    2  501    0 +6.3750855304e+01 -2.1727689823e+01 +1.7690459551e+02 2.5389333197e+02 1.6920497643e+02 0.0000e+00 0.0000e+00
       24  2    5    5    0    0 +9.4829402832e+01 -4.8340211834e+01 +1.6324860637e+02 2.1050348888e+02 7.9575245059e+01 0.0000e+00 0.0000e+00
        5  1    5    5  501    0 -3.1078547528e+01 +2.6612522011e+01 +1.3655989144e+01 4.3389843094e+01 4.7000000000e+00 0.0000e+00 -1.0000e+00
      -13  1    6    6    0    0 +3.5280043175e+01 -1.8210554921e+01 +1.3002855502e+02 1.3595488545e+02 0.0000000000e+00 0.0000e+00 1.0000e+00
       14  1    6    6    0    0 +5.9549359657e+01 -3.0129656913e+01 +3.3220051347e+01 7.4548603426e+01 0.0000000000e+00 0.0000e+00 -1.0000e+00
       -5  1    3    3    0  503 +2.3368787180e+01 -3.7230783275e+01 +3.2757946113e+02 3.3054897487e+02 4.7000000000e+00 0.0000e+00 1.0000e+00
       13  1    4    4    0    0 -7.4428396237e+01 -2.8565974139e+01 +2.0036584487e+02 2.1564339274e+02 0.0000000000e+00 0.0000e+00 -1.0000e+00
      -14  1    4    4    0    0 -2.7387266276e+01 +4.2393943673e+01 +1.6636865269e+02 1.7385579488e+02 0.0000000000e+00 0.0000e+00 1.0000e+00
       21  1    1    2  504  502 +1.4696020029e+01 +4.5130503564e+01 -1.0209742504e+03 1.0220768833e+03 0.0000000000e+00 0.0000e+00 -1.0000e+00
<mgrwt>
<rscale>  3 0.18751693E+03</rscale>
<asrwt>0</asrwt>
<pdfrwt beam="1">  1       21 0.14202021E+00 0.18823402E+03</pdfrwt>
<pdfrwt beam="2">  1       21 0.16505954E+00 0.18823402E+03</pdfrwt>
<totfact> 0.80285301E+01</totfact>
</mgrwt>
</event>
<event>
13      2 +1.4674046e+01 3.38338300e+02 7.54677100e-03 1.06759700e-01
       21 -1    0    0  501  502 +0.0000000000e+00 +0.0000000000e+00 +4.2197526848e+02 4.2197526848e+02 0.0000000000e+00 0.0000e+00 1.0000e+00
       21 -1    0    0  502  503 -0.0000000000e+00 -0.0000000000e+00 -4.6190236169e+02 4.6190236169e+02 0.0000000000e+00 0.0000e+00 -1.0000e+00
        6  2    1    2  501    0 +3.2045243305e+02 +5.2806111375e+01 +2.1174938395e+02 4.2482987781e+02 1.7367894585e+02 0.0000e+00 0.0000e+00
       24  2    3    3    0    0 +1.7087900956e+02 +6.7609100181e+01 +1.8373026622e+02 2.7186420045e+02 7.9891842044e+01 0.0000e+00 0.0000e+00
       -6  2    1    2    0  504 -2.7831114845e+02 -4.2646634156e+01 -2.5284279757e+02 4.1568344505e+02 1.7200992834e+02 0.0000e+00 0.0000e+00
      -24  2    5    5    0    0 -1.1359556741e+02 -9.2439271417e+01 -1.3682720377e+02 2.0809674661e+02 5.5978571111e+01 0.0000e+00 0.0000e+00
        5  1    3    3  501    0 +1.4957342349e+02 -1.4802988806e+01 +2.8019117728e+01 1.5296567736e+02 4.7000000000e+00 0.0000e+00 -1.0000e+00
      -13  1    4    4    0    0 +1.4847694533e+02 +4.0584622520e+01 +1.7957659827e+02 2.3651695399e+02 0.0000000000e+00 0.0000e+00 1.0000e+00
       14  1    4    4    0    0 +2.2402064235e+01 +2.7024477661e+01 +4.1536679498e+00 3.5347246460e+01 0.0000000000e+00 0.0000e+00 -1.0000e+00
       -5  1    5    5    0  504 -1.6471558105e+02 +4.9792637261e+01 -1.1601559380e+02 2.0758669844e+02 4.7000000000e+00 0.0000e+00 1.0000e+00
       13  1    6    6    0    0 -7.7162409590e+01 -2.9760160362e+01 -8.7557171281e+01 1.2044070259e+02 0.0000000000e+00 0.0000e+00 -1.0000e+00
      -14  1    6    6    0    0 -3.6433157817e+01 -6.2679111055e+01 -4.9270032490e+01 8.7656044018e+01 0.0000000000e+00 0.0000e+00 1.0000e+00
       21  1    1    2  504  503 -4.2141284600e+01 -1.0159477219e+01 +1.1663204174e+00 4.3364307309e+01 0.0000000000e+00 0.0000e+00 -1.0000e+00
<mgrwt>
<rscale>  3 0.33812466E+03</rscale>
<asrwt>0</asrwt>
<pdfrwt beam="1">  1       21 0.64919272E-01 0.33833829E+03</pdfrwt>
<pdfrwt beam="2">  1       21 0.71061901E-01 0.33833829E+03</pdfrwt>
<totfact> 0.35773463E+03</totfact>
</mgrwt>
</event>
<event>
13      3 +1.4674046e+01 2.87489600e+02 7.54677100e-03 1.09635300e-01
        2 -1    0    0  501    0 +0.0000000000e+00 +0.0000000000e+00 +4.9753115936e+02 4.9753115936e+02 0.0000000000e+00 0.0000e+00 -1.0000e+00
        1 -1    0    0  502    0 -0.0000000000e+00 -0.0000000000e+00 -1.1804328638e+03 1.1804328638e+03 0.0000000000e+00 0.0000e+00 -1.0000e+00
       -6  2    1    2    0  503 +1.6540412963e+02 +8.0327085286e+01 +1.2670380121e+01 2.5285820116e+02 1.7310622355e+02 0.0000e+00 0.0000e+00
      -24  2    3    3    0    0 +5.0028533324e+01 +3.7226841139e+01 -5.2043521938e+01 1.1364922735e+02 7.9491677895e+01 0.0000e+00 0.0000e+00
       24  2    1    2    0    0 -1.9315654537e+02 -1.1505110769e+02 -1.1282922559e+02 2.6394797195e+02 7.9949292362e+01 0.0000e+00 0.0000e+00
        5  1    1    2  501    0 +2.7198863114e+01 +3.0523617318e+01 -5.5946234285e+01 6.9451713439e+01 4.7000000000e+00 0.0000e+00 -1.0000e+00
      -13  1    5    5    0    0 -1.4554056796e+02 -1.2230377711e+02 -9.5634491031e+01 2.1280560776e+02 0.0000000000e+00 0.0000e+00 1.0000e+00
       14  1    5    5    0    0 -4.7615977416e+01 +7.2526694226e+00 -1.7194734557e+01 5.1142364196e+01 0.0000000000e+00 0.0000e+00 -1.0000e+00
       -5  1    3    3    0  503 +1.1537559631e+02 +4.3100244147e+01 +6.4713902059e+01 1.3920897381e+02 4.7000000000e+00 0.0000e+00 1.0000e+00
       13  1    4    4    0    0 +6.4857271992e+01 +2.7915243151e+01 -6.1598258786e+01 9.3702038483e+01 0.0000000000e+00 0.0000e+00 -1.0000e+00
      -14  1    4    4    0    0 -1.4828738668e+01 +9.3115979878e+00 +9.5547368487e+00 1.9947188870e+01 0.0000000000e+00 0.0000e+00 1.0000e+00
        2  1    1    2  502    0 +1.4362294408e+01 -1.7838173813e+01 +2.8178112725e+02 2.8271023968e+02 0.0000000000e+00 0.0000e+00 -1.0000e+00
        1  1    1    2  503    0 -1.3808741783e+01 +2.2038578900e+01 -8.0857775190e+02 8.0899589688e+02 0.0000000000e+00 0.0000e+00 -1.0000e+00
<mgrwt>
<rscale>  4 0.27878736E+03</rscale>
<asrwt>0</asrwt>
<pdfrwt beam="1">  1        2 0.76543256E-01 0.28748957E+03</pdfrwt>
<pdfrwt beam="2">  1        1 0.18160506E+00 0.28748957E+03</pdfrwt>
<totfact> 0.10105394E+02</totfact>
</mgrwt>
</event>
<event>
13      2 +1.4674046e+01 4.31700300e+02 7.54677100e-03 1.03351100e-01
       21 -1    0    0  503  502 +0.0000000000e+00 +0.0000000000e+00 +8.8750582015e+02 8.8750582015e+02 0.0000000000e+00 0.0000e+00 -1.0000e+00
       21 -1    0    0  504  503 -0.0000000000e+00 -0.0000000000e+00 -9.3840991056e+02 9.3840991056e+02 0.0000000000e+00 0.0000e+00 -1.0000e+00
        6  2    1    2  501    0 -4.5323903157e+02 -3.8688367783e+01 +2.1239901538e+02 5.3271866144e+02 1.7819489603e+02 0.0000e+00 0.0000e+00
       24  2    3    3    0    0 -3.0370354384e+02 +4.4910145224e+01 +1.4525061230e+02 3.4865190316e+02 7.8788612875e+01 0.0000e+00 0.0000e+00
       -6  2    1    2    0  502 +3.6309163289e+02 +5.6938620445e+00 +4.3270196222e+02 5.9060312851e+02 1.7237492092e+02 0.0000e+00 0.0000e+00
      -24  2    5    5    0    0 +3.4557609900e+02 -1.8439568133e+01 +4.3362255414e+02 5.6040124332e+02 7.9108635333e+01 0.0000e+00 0.0000e+00
        5  1    3    3  501    0 -1.4953548773e+02 -8.3598513007e+01 +6.7148403074e+01 1.8406675828e+02 4.7000000000e+00 0.0000e+00 -1.0000e+00
      -13  1    4    4    0    0 -1.1410939028e+02 -2.1112929690e+01 +4.8095091034e+01 1.2561785913e+02 0.0000000000e+00 0.0000e+00 1.0000e+00
       14  1    4    4    0    0 -1.8959415356e+02 +6.6023074914e+01 +9.7155521270e+01 2.2303404403e+02 0.0000000000e+00 0.0000e+00 -1.0000e+00
       -5  1    5    5    0  502 +1.7515533892e+01 +2.4133430178e+01 -9.2059192117e-01 3.0201885192e+01 4.7000000000e+00 0.0000e+00 1.0000e+00
       13  1    6    6    0    0 +2.4085229751e+02 -4.8485353447e+01 +2.8856800051e+02 3.7898832387e+02 0.0000000000e+00 0.0000e+00 -1.0000e+00
      -14  1    6    6    0    0 +1.0472380149e+02 +3.0045785313e+01 +1.4505455363e+02 1.8141291945e+02 0.0000000000e+00 0.0000e+00 1.0000e+00
       21  1    1    2  504  501 +9.0147398676e+01 +3.2994505738e+01 -6.9600506800e+02 7.0259394075e+02 0.0000000000e+00 0.0000e+00 -1.0000e+00
<mgrwt>
<rscale>  3 0.43110667E+03</rscale>
<asrwt>0</asrwt>
<pdfrwt beam="1">  1       21 0.13653936E+00 0.43170030E+03</pdfrwt>
<pdfrwt beam="2">  1       21 0.14437076E+00 0.43170030E+03</pdfrwt>
<totfact> 0.10222822E+02</totfact>
</mgrwt>
</event>
<event>
12      2 +1.4674046e+01 4.32387900e+02 7.54677100e-03 1.05517900e-01
       21 -1    0    0  504  502 +0.0000000000e+00 +0.0000000000e+00 +4.3079994984e+02 4.3079994984e+02 0.0000000000e+00 0.0000e+00 1.0000e+00
       21 -1    0    0  501  503 -0.0000000000e+00 -0.0000000000e+00 -1.1179533053e+03 1.1179533053e+03 0.0000000000e+00 0.0000e+00 1.0000e+00
        6  2    1    2  501    0 +2.0016165112e+01 -3.8179095969e+02 +1.5278788219e+02 4.4694853491e+02 1.7393640260e+02 0.0000e+00 0.0000e+00
       24  2    3    3    0    0 -7.8403044793e+00 -2.1905178366e+02 +1.6104097741e+02 2.8156949786e+02 7.2815049444e+01 0.0000e+00 0.0000e+00
      -24  2    1    2    0    0 -1.4797465194e+02 -4.2417624193e+01 -3.5494459867e+02 3.9510553946e+02 8.0168364861e+01 0.0000e+00 0.0000e+00
        5  1    3    3  501    0 +2.7856469591e+01 -1.6273917603e+02 -8.2530952190e+00 1.6537903704e+02 4.7000000000e+00 0.0000e+00 -1.0000e+00
      -13  1    4    4    0    0 -1.8669841510e+01 -1.5079680710e+02 +7.0072317811e+01 1.6732713389e+02 0.0000000000e+00 0.0000e+00 1.0000e+00
       14  1    4    4    0    0 +1.0829537031e+01 -6.8254976560e+01 +9.0968659595e+01 1.1424236397e+02 0.0000000000e+00 0.0000e+00 -1.0000e+00
       -5  1    1    2    0  502 +5.1883961086e+01 -1.7818520728e+01 -1.0618145059e+02 1.1960784066e+02 4.7000000000e+00 0.0000e+00 1.0000e+00
       13  1    5    5    0    0 -1.0060815017e+02 -3.5027237219e+01 -1.4601459566e+02 1.8074614622e+02 0.0000000000e+00 0.0000e+00 -1.0000e+00
      -14  1    5    5    0    0 -4.7366501764e+01 -7.3903869744e+00 -2.0893000301e+02 2.1435939323e+02 0.0000000000e+00 0.0000e+00 1.0000e+00
       21  1    1    2  504  503 +7.6074525740e+01 +4.4202710461e+02 -3.7881518838e+02 5.8709134010e+02 0.0000000000e+00 0.0000e+00 1.0000e+00
<mgrwt>
<rscale>  3 0.36873148E+03</rscale>
<asrwt>0</asrwt>
<pdfrwt beam="1">  1       21 0.66276916E-01 0.43238790E+03</pdfrwt>
<pdfrwt beam="2">  1       21 0.17199281E+00 0.43238790E+03</pdfrwt>
<totfact> 0.35859985E+02</totfact>
</mgrwt>
</event>
<event>
12      1 +1.4674046e+01 3.29693400e+02 7.54677100e-03 1.07131300e-01
       21 -1    0    0  501  502 +0.0000000000e+00 +0.0000000000e+00 +9.7043635685e+02 9.7043635685e+02 0.0000000000e+00 0.0000e+00 -1.0000e+00
       21 -1    0    0  502  503 -0.0000000000e+00 -0.0000000000e+00 -1.4097460785e+02 1.4097460785e+02 0.0000000000e+00 0.0000e+00 1.0000e+00
       -6  2    1    2    0  503 -6.8471405118e+01 -2.6989084743e+02 +1.6212158152e+02 3.6707189927e+02 1.7586633899e+02 0.0000e+00 0.0000e+00
      -24  2    3    3    0    0 -5.7741588012e+01 -5.2411861951e+01 +8.3239814535e+01 1.3543282384e+02 7.3021153037e+01 0.0000e+00 0.0000e+00
        6  2    1    2  501    0 +6.8471405118e+01 +2.6989084743e+02 +6.6734016747e+02 7.4433906544e+02 1.7654558155e+02 0.0000e+00 0.0000e+00
       24  2    5    5    0    0 +2.9759003946e+01 +2.1002480525e+02 +3.3542509256e+02 4.0482131926e+02 7.9839155028e+01 0.0000e+00 0.0000e+00
        5  1    5    5  501    0 +3.8712401172e+01 +5.9866042180e+01 +3.3191507492e+02 3.3951774618e+02 4.7000000000e+00 0.0000e+00 -1.0000e+00
      -13  1    6    6    0    0 +8.9053390420e+00 +1.0374409009e+02 +2.3536048326e+02 2.5736491286e+02 0.0000000000e+00 0.0000e+00 1.0000e+00
       14  1    6    6    0    0 +2.0853664904e+01 +1.0628071516e+02 +1.0006460930e+02 1.4745640640e+02 0.0000000000e+00 0.0000e+00 -1.0000e+00
       -5  1    3    3    0  503 -1.0729817106e+01 -2.1747898548e+02 +7.8881766988e+01 2.3163907542e+02 4.7000000000e+00 0.0000e+00 1.0000e+00
       13  1    4    4    0    0 +1.3208883738e+01 -3.7122603882e+00 -2.5092274254e+00 1.3948179418e+01 0.0000000000e+00 0.0000e+00 -1.0000e+00
      -14  1    4    4    0    0 -7.0950471750e+01 -4.8699601563e+01 +8.5749041961e+01 1.2148464443e+02 0.0000000000e+00 0.0000e+00 1.0000e+00
<mgrwt>
<rscale>  2 0.32960257E+03</rscale>
<asrwt>0</asrwt>
<pdfrwt beam="1">  1       21 0.14929790E+00 0.32969341E+03</pdfrwt>
<pdfrwt beam="2">  1       21 0.21688402E-01 0.32969341E+03</pdfrwt>
<totfact> 0.54986508E+03</totfact>
</mgrwt>
</event>
<event>
13      2 +1.4674046e+01 1.81807200e+02 7.54677100e-03 1.16633300e-01
       21 -1    0    0  501  502 +0.0000000000e+00 +0.0000000000e+00 +3.8414578590e+02 3.8414578590e+02 0.0000000000e+00 0.0000e+00 -1.0000e+00
       21 -1    0    0  504  503 -0.0000000000e+00 -0.0000000000e+00 -1.6375401999e+02 1.6375401999e+02 0.0000000000e+00 0.0000e+00 1.0000e+00
       -6  2    1    2    0  503 -2.0680228595e+01 -2.8363521358e+01 +1.8355167294e+02 2.5612832386e+02 1.7515233496e+02 0.0000e+00 0.0000e+00
      -24  2    3    3    0    0 +7.0184840907e+00 +4.9739398528e+01 +7.7915737412e+01 1.2178426684e+02 7.8976443509e+01 0.0000e+00 0.0000e+00
        6  2    1    2  501    0 -6.7204269292e+01 +2.2043112271e+01 -1.6880291438e+01 1.8857500806e+02 1.7399217458e+02 0.0000e+00 0.0000e+00
       24  2    5    5    0    0 -6.1357766765e+01 -3.8319936994e+01 -4.9037465100e+01 1.1977055234e+02 8.1897003070e+01 0.0000e+00 0.0000e+00
        5  1    5    5  501    0 -5.8465025269e+00 +6.0363049265e+01 +3.2157173663e+01 6.8804455716e+01 4.7000000000e+00 0.0000e+00 -1.0000e+00
      -13  1    6    6    0    0 -3.7942379984e+01 -6.0610950996e+01 -5.0284164234e+01 8.7417439634e+01 0.0000000000e+00 0.0000e+00 1.0000e+00
       14  1    6    6    0    0 -2.3415386781e+01 +2.2291014002e+01 +1.2466991334e+00 3.2353112710e+01 0.0000000000e+00 0.0000e+00 -1.0000e+00
       -5  1    3    3    0  503 -2.7698712686e+01 -7.8102919886e+01 +1.0563593553e+02 1.3434405701e+02 4.7000000000e+00 0.0000e+00 1.0000e+00
       13  1    4    4    0    0 +2.8079077226e+01 -1.3215633061e+00 +5.5427153724e+01 6.2147811525e+01 0.0000000000e+00 0.0000e+00 -1.0000e+00
      -14  1    4    4    0    0 -2.1060593135e+01 +5.1060961835e+01 +2.2488583687e+01 5.9636455318e+01 0.0000000000e+00 0.0000e+00 1.0000e+00
       21  1    1    2  504  502 +8.7884497886e+01 +6.3204090868e+00 +5.3720384410e+01 1.0319647398e+02 0.0000000000e+00 0.0000e+00 -1.0000e+00
<mgrwt>
<rscale>  3 0.18152725E+03</rscale>
<asrwt>0</asrwt>
<pdfrwt beam="1">  1       21 0.59099351E-01 0.18180725E+03</pdfrwt>
<pdfrwt beam="2">  1       21 0.25192926E-01 0.18180725E+03</pdfrwt>
<totfact> 0.40169256E+04</totfact>
</mgrwt>
</event>
<event>
12      1 +1.4674046e+01 1.77898500e+02 7.54677100e-03 1.17063700e-01
       21 -1    0    0  503  502 +0.0000000000e+00 +0.0000000000e+00 +3.7505499512e+02 3.7505499512e+02 0.0000000000e+00 0.0000e+00 1.0000e+00
       21 -1    0    0  501  503 -0.0000000000e+00 -0.0000000000e+00 -9.3793331062e+01 9.3793331062e+01 0.0000000000e+00 0.0000e+00 1.0000e+00
        6  2    1    2  501    0 +2.5452873539e+01 -3.3042387633e+01 +6.1818048232e+01 1.8833305816e+02 1.7293993626e+02 0.0000e+00 0.0000e+00
       24  2    3    3    0    0 +7.9091417528e+01 +4.0447811599e+00 +3.3797680898e+01 1.1720091018e+02 7.9510738467e+01 0.0000e+00 0.0000e+00
       -6  2    1    2    0  502 -2.5452873539e+01 +3.3042387633e+01 +2.1944361583e+02 2.8051526803e+02 1.6968696743e+02 0.0000e+00 0.0000e+00
      -24  2    5    5    0    0 +2.7599089192e+01 -2.8111122803e+01 +1.4185408376e+02 1.6828119087e+02 8.1510938975e+01 0.0000e+00 0.0000e+00
        5  1    3    3  501    0 -5.3638543989e+01 -3.7087168793e+01 +2.8020367333e+01 7.1132147977e+01 4.7000000000e+00 0.0000e+00 -1.0000e+00
      -13  1    4    4    0    0 +2.5747965265e+01 -2.3895172110e+00 -2.6096550689e+01 3.6738228940e+01 0.0000000000e+00 0.0000e+00 1.0000e+00
       14  1    4    4    0    0 +5.3343452263e+01 +6.4342983709e+00 +5.9894231587e+01 8.0462681239e+01 0.0000000000e+00 0.0000e+00 -1.0000e+00
       -5  1    5    5    0  502 -5.3051962731e+01 +6.1153510435e+01 +7.7589532066e+01 1.1223407715e+02 4.7000000000e+00 0.0000e+00 1.0000e+00
       13  1    6    6    0    0 -2.5290963063e+01 -2.7829872263e+01 +6.1290125678e+01 7.1906982334e+01 0.0000000000e+00 0.0000e+00 -1.0000e+00
      -14  1    6    6    0    0 +5.2890052255e+01 -2.8125053949e-01 +8.0563958083e+01 9.6374208539e+01 0.0000000000e+00 0.0000e+00 1.0000e+00
<mgrwt>
<rscale>  2 0.17710300E+03</rscale>
<asrwt>0</asrwt>
<pdfrwt beam="1">  1       21 0.57700768E-01 0.17789848E+03</pdfrwt>
<pdfrwt beam="2">  1       21 0.14429743E-01 0.17789848E+03</pdfrwt>
<totfact> 0.11921535E+05</totfact>
</mgrwt>
</event>
<event>
13      3 +1.4674046e+01 7.76821100e+02 7.54677100e-03 1.00243000e-01
       21 -1    0    0  504  502 +0.0000000000e+00 +0.0000000000e+00 +2.0815270094e+03 2.0815270094e+03 0.0000000000e+00 0.0000e+00 -1.0000e+00
       21 -1    0    0  505  503 -0.0000000000e+00 -0.0000000000e+00 -6.5881384674e+02 6.5881384674e+02 0.0000000000e+00 0.0000e+00 1.0000e+00
       -6  2    1    2    0  503 -4.8921930903e+01 -5.6926150640e+01 -4.3109796512e+02 4.7057598061e+02 1.7309637792e+02 0.0000e+00 0.0000e+00
      -24  2    3    3    0    0 +2.9048471931e+01 -2.7433022973e+01 -3.1311542883e+02 3.2603810610e+02 8.1628367556e+01 0.0000e+00 0.0000e+00
       24  2    1    2    0    0 -2.4273512643e+01 +3.4549133019e+02 +8.0219707241e+02 8.7747419945e+02 8.0544180799e+01 0.0000e+00 0.0000e+00
        5  1    1    2  501    0 +1.1315986800e+02 -1.6148736189e+02 -6.7378981959e+01 2.0843546000e+02 4.7000000000e+00 0.0000e+00 -1.0000e+00
      -13  1    5    5    0    0 -4.7529449975e+01 +2.7601850190e+02 +6.7293601190e+02 7.2889514892e+02 0.0000000000e+00 0.0000e+00 1.0000e+00
       14  1    5    5    0    0 +2.3255937332e+01 +6.9472828287e+01 +1.2926106051e+02 1.4857905052e+02 0.0000000000e+00 0.0000e+00 -1.0000e+00
       -5  1    3    3    0  503 -7.7970402834e+01 -2.9493127667e+01 -1.1798253629e+02 1.4453787451e+02 4.7000000000e+00 0.0000e+00 1.0000e+00
       13  1    4    4    0    0 +4.8679764973e+01 -4.3128233834e+01 -2.0646747750e+02 2.1646843497e+02 0.0000000000e+00 0.0000e+00 -1.0000e+00
      -14  1    4    4    0    0 -1.9631293042e+01 +1.5695210861e+01 -1.0664795133e+02 1.0956967114e+02 0.0000000000e+00 0.0000e+00 1.0000e+00
       21  1    1    2  504  501 +6.9759541322e+01 -1.9644980948e+01 +2.1392032650e+01 7.5564131325e+01 0.0000000000e+00 0.0000e+00 -1.0000e+00
       21  1    1    2  505  502 -1.0972396578e+02 -1.0743283672e+02 +1.0976010047e+03 1.1082910847e+03 0.0000000000e+00 0.0000e+00 -1.0000e+00
<mgrwt>
<rscale>  4 0.54597411E+03</rscale>
<asrwt>0</asrwt>
<pdfrwt beam="1">  1       21 0.32023492E+00 0.77682108E+03</pdfrwt>
<pdfrwt beam="2">  1       21 0.10135598E+00 0.77682108E+03</pdfrwt>
<totfact> 0.12780491E+01</totfact>
</mgrwt>
</event>
<event>
13      2 +1.4674046e+01 1.78192900e+02 7.54677100e-03 1.17168300e-01
       21 -1    0    0  504  502 +0.0000000000e+00 +0.0000000000e+00 +1.2001954575e+02 1.2001954575e+02 0.0000000000e+00 0.0000e+00 1.0000e+00
       21 -1    0    0  501  503 -0.0000000000e+00 -0.0000000000e+00 -8.5784121541e+02 8.5784121541e+02 0.0000000000e+00 0.0000e+00 1.0000e+00
        6  2    1    2  501    0 +2.5395039075e+01 +3.4415192362e+01 -5.7238310725e+02 5.9962379286e+02 1.7348474866e+02 0.0000e+00 0.0000e+00
       24  2    3    3    0    0 +6.9861688116e+01 -5.2325865015e+00 -4.6134342657e+02 4.7352411034e+02 8.0494039549e+01 0.0000e+00 0.0000e+00
       -6  2    1    2    0  502 -8.0725627593e+01 +5.9503647663e+01 -1.8522076240e+02 2.6745087724e+02 1.6482090243e+02 0.0000e+00 0.0000e+00
      -24  2    5    5    0    0 -2.5163234118e+01 -2.6453240728e+01 -8.0999818733e+01 1.2130074440e+02 8.2582913854e+01 0.0000e+00 0.0000e+00
        5  1    3    3  501    0 -4.4466649041e+01 +3.9647778863e+01 -1.1103968068e+02 1.2609968252e+02 4.7000000000e+00 0.0000e+00 1.0000e+00
      -13  1    4    4    0    0 +7.2481355047e+01 -3.2404787972e+01 -3.3948338841e+02 3.4864392741e+02 0.0000000000e+00 0.0000e+00 1.0000e+00
       14  1    4    4    0    0 -2.6196669320e+00 +2.7172201471e+01 -1.2186003816e+02 1.2488018293e+02 0.0000000000e+00 0.0000e+00 -1.0000e+00
       -5  1    5    5    0  502 -5.5562393476e+01 +8.5956888391e+01 -1.0422094366e+02 1.4615013284e+02 4.7000000000e+00 0.0000e+00 1.0000e+00
       13  1    6    6    0    0 -1.3695286936e+00 +2.6923529917e+01 -4.5607425334e+01 5.2979140401e+01 0.0000000000e+00 0.0000e+00 -1.0000e+00
      -14  1    6    6    0    0 -2.3793705424e+01 -5.3376770645e+01 -3.5392393399e+01 6.8321603998e+01 0.0000000000e+00 0.0000e+00 1.0000e+00
       21  1    1    2  504  503 +5.5330588519e+01 -9.3918840025e+01 +1.9782199990e+01 1.1078609107e+02 0.0000000000e+00 0.0000e+00 1.0000e+00
<mgrwt>
<rscale>  3 0.17604868E+03</rscale>
<asrwt>0</asrwt>
<pdfrwt beam="1">  1       21 0.18464545E-01 0.17819292E+03</pdfrwt>
<pdfrwt beam="2">  1       21 0.13197557E+00 0.17819292E+03</pdfrwt>
<totfact> 0.11262061E+04</totfact>
</mgrwt>
</event>
<event>
12      1 +1.4674046e+01 2.20664500e+02 7.54677100e-03 1.13366900e-01
       21 -1    0    0  503  502 +0.0000000000e+00 +0.0000000000e+00 +3.3208403278e+02 3.3208403278e+02 0.0000000000e+00 0.0000e+00 1.0000e+00
       21 -1    0    0  501  503 -0.0000000000e+00 -0.0000000000e+00 -3.9058780210e+02 3.9058780210e+02 0.0000000000e+00 0.0000e+00 -1.0000e+00
        6  2    1    2  501    0 -3.6901617813e+01 +1.3170306536e+02 -3.1536707466e+02 3.8403992939e+02 1.7123915663e+02 0.0000e+00 0.0000e+00
       24  2    3    3    0    0 -7.3128906974e+01 +5.1978912638e+01 -1.2104263212e+02 1.7084416026e+02 8.0540448906e+01 0.0000e+00 0.0000e+00
       -6  2    1    2    0  502 +3.6901617813e+01 -1.3170306536e+02 +2.5686330534e+02 3.3863190549e+02 1.7316287986e+02 0.0000e+00 0.0000e+00
      -24  2    5    5    0    0 +8.8794404389e+01 -7.0842119067e+01 +1.8166397331e+02 2.2875039831e+02 8.0136717198e+01 0.0000e+00 0.0000e+00
        5  1    3    3  501    0 +3.6227289161e+01 +7.9724152723e+01 -1.9432444254e+02 2.1319576913e+02 4.7000000000e+00 0.0000e+00 -1.0000e+00
      -13  1    4    4    0    0 -7.3436076523e+01 +3.4162002222e+01 -1.2819953408e+02 1.5164109031e+02 0.0000000000e+00 0.0000e+00 1.0000e+00
       14  1    4    4    0    0 +3.0716954895e-01 +1.7816910416e+01 +7.1569019609e+00 1.9203069952e+01 0.0000000000e+00 0.0000e+00 -1.0000e+00
       -5  1    5    5    0  502 -5.1892786576e+01 -6.0860946293e+01 +7.5199332036e+01 1.0988150718e+02 4.7000000000e+00 0.0000e+00 1.0000e+00
       13  1    6    6    0    0 +6.6871057532e+01 -4.6395234415e+01 +5.5818328484e+01 9.8691144013e+01 0.0000000000e+00 0.0000e+00 -1.0000e+00
      -14  1    6    6    0    0 +2.1923346857e+01 -2.4446884652e+01 +1.2584564482e+02 1.3005925429e+02 0.0000000000e+00 0.0000e+00 1.0000e+00
<mgrwt>
<rscale>  2 0.22028691E+03</rscale>
<asrwt>0</asrwt>
<pdfrwt beam="1">  1       21 0.51089851E-01 0.22066447E+03</pdfrwt>
<pdfrwt beam="2">  1       21 0.60090431E-01 0.22066447E+03</pdfrwt>
<totfact> 0.92320452E+03</totfact>
</mgrwt>
</event>
<event>
13      2 +1.4674046e+01 1.89304300e+02 7.54677100e-03 1.15913700e-01
       21 -1    0    0  504  502 +0.0000000000e+00 +0.0000000000e+00 +4.6985599075e+02 4.6985599075e+02 0.0000000000e+00 0.0000e+00 -1.0000e+00
       21 -1    0    0  501  503 -0.0000000000e+00 -0.0000000000e+00 -5.0220646364e+02 5.0220646364e+02 0.0000000000e+00 0.0000e+00 1.0000e+00
        6  2    1    2  501    0 +1.9304919589e+01 +8.9491086887e+01 +1.0344582587e+02 2.2156616654e+02 1.7323161580e+02 0.0000e+00 0.0000e+00
       24  2    3    3    0    0 +6.3285646577e+01 +5.9370198867e+01 +1.6329039336e+01 1.1932626857e+02 8.0263486518e+01 0.0000e+00 0.0000e+00
       -6  2    1    2    0  502 +1.5079459977e+01 -6.9821096743e+01 +2.7781942263e+02 3.3498797380e+02 1.7300559336e+02 0.0000e+00 0.0000e+00
      -24  2    5    5    0    0 -5.6073053846e+01 -2.5442359973e+01 +1.2565043349e+02 1.6117875725e+02 7.9994120434e+01 0.0000e+00 0.0000e+00
        5  1    3    3  501    0 -4.3980726987e+01 +3.0120888019e+01 +8.7116786534e+01 1.0223989797e+02 4.7000000000e+00 0.0000e+00 -1.0000e+00
      -13  1    4    4    0    0 +4.6560156722e+01 +7.8871264029e+01 +6.5004720697e+00 9.1819282401e+01 0.0000000000e+00 0.0000e+00 1.0000e+00
       14  1    4    4    0    0 +1.6725489855e+01 -1.9501065162e+01 +9.8285672666e+00 2.7506986165e+01 0.0000000000e+00 0.0000e+00 -1.0000e+00
       -5  1    5    5    0  502 +7.1152513822e+01 -4.4378736770e+01 +1.5216898914e+02 1.7380921654e+02 4.7000000000e+00 0.0000e+00 1.0000e+00
       13  1    6    6    0    0 +3.9315042858e+00 -3.8467824303e+01 +5.9133631208e+01 7.0654204209e+01 0.0000000000e+00 0.0000e+00 -1.0000e+00
      -14  1    6    6    0    0 -6.0004558131e+01 +1.3025464330e+01 +6.6516802284e+01 9.0524553043e+01 0.0000000000e+00 0.0000e+00 1.0000e+00
       21  1    1    2  504  503 -3.4384379566e+01 -1.9669990144e+01 -4.1361572139e+02 4.1550831406e+02 0.0000000000e+00 0.0000e+00 1.0000e+00
<mgrwt>
<rscale>  3 0.18925253E+03</rscale>
<asrwt>0</asrwt>
<pdfrwt beam="1">  1       21 0.72285537E-01 0.18930425E+03</pdfrwt>
<pdfrwt beam="2">  1       21 0.77262533E-01 0.18930425E+03</pdfrwt>
<totfact> 0.25749050E+03</totfact>
</mgrwt>
</event>
<event>
13      2 +1.4674046e+01 2.18861400e+02 7.54677100e-03 1.13490500e-01
        1 -1    0    0  503    0 -0.0000000000e+00 +0.0000000000e+00 +2.5176217836e+03 2.5176217836e+03 0.0000000000e+00 0.0000e+00 -1.0000e+00
       21 -1    0    0  501  503 +0.0000000000e+00 -0.0000000000e+00 -6.7512302689e+01 6.7512302689e+01 0.0000000000e+00 0.0000e+00 1.0000e+00
        6  2    1    2  501    0 -1.2890274805e+02 +6.9344857745e+01 +3.3667790356e+02 4.0602543313e+02 1.7343590705e+02 0.0000e+00 0.0000e+00
       24  2    3    3    0    0 -1.1400081389e+02 +1.9796917695e+01 +1.2572292795e+02 1.8876715886e+02 8.0241399117e+01 0.0000e+00 0.0000e+00
       -6  2    1    2    0  502 +1.1311278518e+02 -4.5862093723e+01 +3.0783520897e+02 3.7329055362e+02 1.7229476987e+02 0.0000e+00 0.0000e+00
      -24  2    5    5    0    0 +8.9498360551e+01 +3.2420970080e+01 +2.1887977076e+02 2.5237306474e+02 8.1992279607e+01 0.0000e+00 0.0000e+00
        5  1    3    3  501    0 -1.4901934155e+01 +4.9547940050e+01 +2.1095497562e+02 2.1725827428e+02 4.7000000000e+00 0.0000e+00 -1.0000e+00
      -13  1    4    4    0    0 -6.8701205470e+01 +5.0640756371e+01 +6.7550931890e+01 1.0884608508e+02 0.0000000000e+00 0.0000e+00 1.0000e+00
       14  1    4    4    0    0 -4.5299608424e+01 -3.0843838675e+01 +5.8171996059e+01 7.9921073773e+01 0.0000000000e+00 0.0000e+00 -1.0000e+00
       -5  1    5    5    0  502 +2.3614424626e+01 -7.8283063803e+01 +8.8955438209e+01 1.2091748887e+02 4.7000000000e+00 0.0000e+00 1.0000e+00
       13  1    6    6    0    0 -1.2450688402e+01 -2.6171952829e+00 +5.3265886472e+01 5.4764258550e+01 0.0000000000e+00 0.0000e+00 -1.0000e+00
      -14  1    6    6    0    0 +1.0194904895e+02 +3.5038165363e+01 +1.6561388429e+02 1.9760880619e+02 0.0000000000e+00 0.0000e+00 1.0000e+00
        1  1    1    2  502    0 +1.5789962872e+01 -2.3482764022e+01 +1.8055963684e+03 1.8058180996e+03 0.0000000000e+00 0.0000e+00 -1.0000e+00
<mgrwt>
<rscale>  3 0.21863521E+03</rscale>
<asrwt>0</asrwt>
<pdfrwt beam="2">  1       21 0.10386510E-01 0.21886136E+03</pdfrwt>
<pdfrwt beam="1">  1        1 0.38732636E+00 0.21886136E+03</pdfrwt>
<totfact> 0.13293515E+03</totfact>
</mgrwt>
</event>
<event>
13      2 +1.4674046e+01 1.91077400e+02 7.54677100e-03 1.15762500e-01
       21 -1    0    0  501  502 +0.0000000000e+00 +0.0000000000e+00 +5.9513110524e+02 5.9513110524e+02 0.0000000000e+00 0.0000e+00 1.0000e+00
       21 -1    0    0  504  503 -0.0000000000e+00 -0.0000000000e+00 -1.5881085248e+02 1.5881085248e+02 0.0000000000e+00 0.0000e+00 1.0000e+00
       -6  2    1    2    0  503 +4.1450469899e+01 -6.7399731164e+01 +4.8233621687e+02 5.1812948128e+02 1.7189842366e+02 0.0000e+00 0.0000e+00
      -24  2    3    3    0    0 +3.5534608829e+01 -1.0868647813e+02 +4.2251197813e+02 4.4504991897e+02 8.0483537177e+01 0.0000e+00 0.0000e+00
        6  2    1    2  501    0 -4.5287890499e+01 +8.9675008545e+01 -1.8971289372e+01 2.0056579984e+02 1.7255181848e+02 0.0000e+00 0.0000e+00
       24  2    5    5    0    0 -7.0910097226e+00 +4.2166687277e+01 -7.5611666208e+01 1.1722154642e+02 7.8711212306e+01 0.0000e+00 0.0000e+00
        5  1    5    5  501    0 -3.8196880777e+01 +4.7508321268e+01 +5.6640376836e+01 8.3344253425e+01 4.7000000000e+00 0.0000e+00 -1.0000e+00
      -13  1    6    6    0    0 -1.3740088049e+01 -1.5437976005e+01 +1.5213076138e+00 2.0722825569e+01 0.0000000000e+00 0.0000e+00 1.0000e+00
       14  1    6    6    0    0 +6.6490783260e+00 +5.7604663282e+01 -7.7132973822e+01 9.6498720846e+01 0.0000000000e+00 0.0000e+00 -1.0000e+00
       -5  1    3    3    0  503 +5.9158610706e+00 +4.1286746970e+01 +5.9824238735e+01 7.3079562313e+01 4.7000000000e+00 0.0000e+00 1.0000e+00
       13  1    4    4    0    0 -1.9811178979e+01 -1.2181929028e+01 +3.6104569911e+01 4.2946736497e+01 0.0000000000e+00 0.0000e+00 -1.0000e+00
      -14  1    4    4    0    0 +5.5345787807e+01 -9.6504549106e+01 +3.8640740822e+02 4.0210318247e+02 0.0000000000e+00 0.0000e+00 1.0000e+00
       21  1    1    2  504  502 +3.8374206004e+00 -2.2275277381e+01 -2.7044674743e+01 3.5246676598e+01 0.0000000000e+00 0.0000e+00 -1.0000e+00
<mgrwt>
<rscale>  3 0.19092974E+03</rscale>
<asrwt>0</asrwt>
<pdfrwt beam="1">  1       21 0.91558631E-01 0.19107737E+03</pdfrwt>
<pdfrwt beam="2">  1       21 0.24432439E-01 0.19107737E+03</pdfrwt>
<totfact> 0.15992973E+04</totfact>
</mgrwt>
</event>
<event>
14      3 +1.4674046e+01 1.75590200e+02 7.54677100e-03 1.17222700e-01
       21 -1    0    0  501  503 +0.0000000000e+00 +0.0000000000e+00 +9.4717636220e+01 9.4717636220e+01 0.0000000000e+00 0.0000e+00 1.0000e+00
        1 -1    0    0  504    0 -0.0000000000e+00 -0.0000000000e+00 -4.1975271677e+03 4.1975271677e+03 0.0000000000e+00 0.0000e+00 1.0000e+00
       -6  2    1    2    0  502 -1.1617097424e+02 +1.6826627173e+01 -2.5858500208e+02 3.3268488827e+02 1.7330378225e+02 0.0000e+00 0.0000e+00
      -24  2    3    3    0    0 -3.3923855395e+01 +6.6074826556e+01 -1.3484722518e+02 1.7608635337e+02 8.5474668964e+01 0.0000e+00 0.0000e+00
        6  2    1    2  501    0 -1.6317664104e+01 -1.3963748125e+00 -7.8865093533e+01 1.9142502373e+02 1.7365373796e+02 0.0000e+00 0.0000e+00
       24  2    5    5    0    0 -2.3734298713e+00 +4.6841724002e+01 +5.0541877678e+00 9.3517457017e+01 8.0747691460e+01 0.0000e+00 0.0000e+00
        5  1    5    5  501    0 -1.3944234233e+01 -4.8238098814e+01 -8.3919281301e+01 9.7907566713e+01 4.7000000000e+00 0.0000e+00 -1.0000e+00
      -13  1    6    6    0    0 +1.3189223403e+01 +4.5030484930e+01 +3.5793270688e+01 5.9015747166e+01 0.0000000000e+00 0.0000e+00 1.0000e+00
       14  1    6    6    0    0 -1.5562653274e+01 +1.8112390720e+00 -3.0739082920e+01 3.4501709851e+01 0.0000000000e+00 0.0000e+00 -1.0000e+00
       -5  1    3    3    0  502 -8.2247118842e+01 -4.9248199383e+01 -1.2373777691e+02 1.5659853490e+02 4.7000000000e+00 0.0000e+00 1.0000e+00
       13  1    4    4    0    0 +4.2411163639e+00 +3.3910086032e+01 -2.0686398040e+00 3.4236826274e+01 0.0000000000e+00 0.0000e+00 -1.0000e+00
      -14  1    4    4    0    0 -3.8164971759e+01 +3.2164740524e+01 -1.3277858537e+02 1.4184952709e+02 0.0000000000e+00 0.0000e+00 1.0000e+00
       21  1    1    2  504  503 +3.8764468352e+01 -4.3050313049e+00 -5.4554308698e+02 5.4693553282e+02 0.0000000000e+00 0.0000e+00 1.0000e+00
        1  1    1    2  502    0 +9.3724169989e+01 -1.1125221056e+01 -3.2198163489e+03 3.2211993591e+03 0.0000000000e+00 0.0000e+00 1.0000e+00
<mgrwt>
<rscale>  4 0.17550365E+03</rscale>
<asrwt>0</asrwt>
<pdfrwt beam="1">  1       21 0.14571951E-01 0.17559023E+03</pdfrwt>
<pdfrwt beam="2">  1        1 0.64577311E+00 0.17559023E+03</pdfrwt>
<totfact> 0.42229239E+01</totfact>
</mgrwt>
</event>
<event>
12      1 +1.4674046e+01 2.31189100e+02 7.54677100e-03 1.12601100e-01
       21 -1    0    0  503  502 +0.0000000000e+00 +0.0000000000e+00 +8.5024480841e+02 8.5024480841e+02 0.0000000000e+00 0.0000e+00 1.0000e+00
       21 -1    0    0  501  503 -0.0000000000e+00 -0.0000000000e+00 -7.7477124758e+01 7.7477124758e+01 0.0000000000e+00 0.0000e+00 1.0000e+00
        6  2    1    2  501    0 +3.9817135920e+01 +1.4691522164e+02 +1.8194729372e+02 2.9327955802e+02 1.7244881791e+02 0.0000e+00 0.0000e+00
       24  2    3    3    0    0 +1.8829465423e+01 +4.8306576787e+01 +1.6594230817e+02 1.9109151217e+02 7.9316090747e+01 0.0000e+00 0.0000e+00
       -6  2    1    2    0  502 -3.9817135920e+01 -1.4691522164e+02 +5.9082038993e+02 6.3444237515e+02 1.7400835485e+02 0.0000e+00 0.0000e+00
      -24  2    5    5    0    0 -4.9940765979e+00 -3.0780601345e+01 +3.9247299354e+02 4.0192640763e+02 8.0854191446e+01 0.0000e+00 0.0000e+00
        5  1    3    3  501    0 +2.0987670498e+01 +9.8608644857e+01 +1.6004985544e+01 1.0218804586e+02 4.7000000000e+00 0.0000e+00 -1.0000e+00
      -13  1    4    4    0    0 -2.3480701340e+01 +4.6828984922e+01 +8.9141858765e+01 1.0339520370e+02 0.0000000000e+00 0.0000e+00 1.0000e+00
       14  1    4    4    0    0 +4.2310166763e+01 +1.4775918646e+00 +7.6800449408e+01 8.7696308465e+01 0.0000000000e+00 0.0000e+00 -1.0000e+00
       -5  1    5    5    0  502 -3.4823059323e+01 -1.1613462030e+02 +1.9834739640e+02 2.3251596752e+02 4.7000000000e+00 0.0000e+00 1.0000e+00
       13  1    6    6    0    0 +8.7612541673e-01 +2.5739451213e+01 +7.2303123560e+01 7.6753036559e+01 0.0000000000e+00 0.0000e+00 -1.0000e+00
      -14  1    6    6    0    0 -5.8702020147e+00 -5.6520052558e+01 +3.2016986998e+02 3.2517337107e+02 0.0000000000e+00 0.0000e+00 1.0000e+00
<mgrwt>
<rscale>  2 0.23089565E+03</rscale>
<asrwt>0</asrwt>
<pdfrwt beam="1">  1       21 0.13080689E+00 0.23118909E+03</pdfrwt>
<pdfrwt beam="2">  1       21 0.11919558E-01 0.23118909E+03</pdfrwt>
<totfact> 0.24703798E+04</totfact>
</mgrwt>
</event>
<event>
14      3 +1.4674046e+01 2.79165200e+02 7.54677100e-03 1.09640800e-01
       21 -1    0    0  504  503 +0.0000000000e+00 +0.0000000000e+00 +2.0267545648e+02 2.0267545648e+02 0.0000000000e+00 0.0000e+00 -1.0000e+00
        1 -1    0    0  503    0 -0.0000000000e+00 -0.0000000000e+00 -1.0257903956e+03 1.0257903956e+03 0.0000000000e+00 0.0000e+00 1.0000e+00
        6  2    1    2  501    0 +1.9865633807e+02 -4.1945435291e+01 -2.1435434980e+02 3.4179115574e+02 1.7219072759e+02 0.0000e+00 0.0000e+00
       24  2    3    3    0    0 +1.0058445623e+02 -6.1921578135e+01 -5.4619200552e+01 1.5323201861e+02 8.0902903434e+01 0.0000e+00 0.0000e+00
       -6  2    1    2    0  502 -2.1311848239e+02 +9.7473870053e+01 -2.8564375390e+02 4.0893139691e+02 1.7524808233e+02 0.0000e+00 0.0000e+00
      -24  2    5    5    0    0 -1.3399227707e+02 +5.4908575697e+01 -2.7094216734e+02 3.1776678042e+02 8.1223067530e+01 0.0000e+00 0.0000e+00
        5  1    3    3  501    0 +9.8071881843e+01 +1.9976142844e+01 -1.5973514925e+02 1.8855913713e+02 4.7000000000e+00 0.0000e+00 -1.0000e+00
      -13  1    4    4    0    0 +7.1945504667e+01 -5.0861608189e+00 -5.3112529686e+01 8.9571008051e+01 0.0000000000e+00 0.0000e+00 1.0000e+00
       14  1    4    4    0    0 +2.8638951565e+01 -5.6835417316e+01 -1.5066708664e+00 6.3661010559e+01 0.0000000000e+00 0.0000e+00 -1.0000e+00
       -5  1    5    5    0  502 -7.9126205327e+01 +4.2565294356e+01 -1.4701586560e+01 9.1164616493e+01 4.7000000000e+00 0.0000e+00 1.0000e+00
       13  1    6    6    0    0 -2.7976564348e+01 +1.3934984373e+01 -9.4669602815e+00 3.2657239307e+01 0.0000000000e+00 0.0000e+00 -1.0000e+00
      -14  1    6    6    0    0 -1.0601571272e+02 +4.0973591324e+01 -2.6147520706e+02 2.8510954111e+02 0.0000000000e+00 0.0000e+00 1.0000e+00
       21  1    1    2  504  501 +3.2154423592e+01 -8.3952387858e+01 +5.0174637141e+01 1.0295340983e+02 0.0000000000e+00 0.0000e+00 -1.0000e+00
        1  1    1    2  502    0 -1.7692279274e+01 +2.8423953095e+01 -3.7329147257e+02 3.7478988960e+02 0.0000000000e+00 0.0000e+00 1.0000e+00
<mgrwt>
<rscale>  4 0.27868672E+03</rscale>
<asrwt>0</asrwt>
<pdfrwt beam="1">  1       21 0.31180839E-01 0.27916522E+03</pdfrwt>
<pdfrwt beam="2">  1        1 0.15781391E+00 0.27916522E+03</pdfrwt>
<totfact> 0.16367303E+03</totfact>
</mgrwt>
</event>
<event>
13      2 +1.4674046e+01 2.52157800e+02 7.54677100e-03 1.11200200e-01
       21 -1    0    0  501  502 +0.0000000000e+00 +0.0000000000e+00 +2.0426376665e+02 2.0426376665e+02 0.0000000000e+00 0.0000e+00 -1.0000e+00
       21 -1    0    0  504  503 -0.0000000000e+00 -0.0000000000e+00 -1.1858288322e+03 1.1858288322e+03 0.0000000000e+00 0.0000e+00 -1.0000e+00
        6  2    1    2  501    0 -8.1093730044e+01 +2.5400497499e+02 -6.7789871186e+02 7.4869083862e+02 1.7290629807e+02 0.0000e+00 0.0000e+00
       24  2    3    3    0    0 -5.0734598236e+01 +6.8007477262e+01 -3.6634964845e+02 3.8454573710e+02 8.0401135447e+01 0.0000e+00 0.0000e+00
       -6  2    1    2    0  503 -6.6059221136e+01 -1.2270910334e+02 -3.7169521875e+02 4.3278602872e+02 1.7240958868e+02 0.0000e+00 0.0000e+00
      -24  2    5    5    0    0 -2.9982952271e+01 -3.0138967285e+01 -2.9112160857e+02 3.0478241969e+02 7.9581389796e+01 0.0000e+00 0.0000e+00
        5  1    3    3  501    0 -3.0359131808e+01 +1.8599749773e+02 -3.1154906341e+02 3.6414510151e+02 4.7000000000e+00 0.0000e+00 -1.0000e+00
      -13  1    4    4    0    0 -5.1686624993e+01 +7.3348588658e+01 -3.6807359222e+02 3.7885312715e+02 0.0000000000e+00 0.0000e+00 1.0000e+00
       14  1    4    4    0    0 +9.5202675730e-01 -5.3411113956e+00 +1.7239437732e+00 5.6926099480e+00 0.0000000000e+00 0.0000e+00 -1.0000e+00
       -5  1    5    5    0  503 -3.6076268865e+01 -9.2570136060e+01 -8.0573610188e+01 1.2800360903e+02 4.7000000000e+00 0.0000e+00 1.0000e+00
       13  1    6    6    0    0 -8.1788691900e+00 -5.2768380414e+01 -1.2851533454e+02 1.3916747855e+02 0.0000000000e+00 0.0000e+00 -1.0000e+00
      -14  1    6    6    0    0 -2.1804083081e+01 +2.2629413129e+01 -1.6260627403e+02 1.6561494114e+02 0.0000000000e+00 0.0000e+00 1.0000e+00
       21  1    1    2  504  502 +1.4715295118e+02 -1.3129587165e+02 +6.8028865065e+01 2.0861573151e+02 0.0000000000e+00 0.0000e+00 -1.0000e+00
<mgrwt>
<rscale>  3 0.25207263E+03</rscale>
<asrwt>0</asrwt>
<pdfrwt beam="1">  1       21 0.31425195E-01 0.25215776E+03</pdfrwt>
<pdfrwt beam="2">  1       21 0.18243520E+00 0.25215776E+03</pdfrwt>
<totfact> 0.16142955E+03</totfact>
</mgrwt>
</event>
<event>
13      3 +1.4674046e+01 2.73336400e+02 7.54677100e-03 1.10165000e-01
       21 -1    0    0  505  502 +0.0000000000e+00 +0.0000000000e+00 +1.5173252820e+02 1.5173252820e+02 0.0000000000e+00 0.0000e+00 1.0000e+00
       21 -1    0    0  504  503 -0.0000000000e+00 -0.0000000000e+00 -1.1763688558e+03 1.1763688558e+03 0.0000000000e+00 0.0000e+00 -1.0000e+00
       -6  2    1    2    0  503 -1.5098139284e+02 +7.3483515019e+01 -6.2934120910e+01 2.4987032512e+02 1.7400939009e+02 0.0000e+00 0.0000e+00
      -24  2    3    3    0    0 -1.0421008812e+02 -2.2791967595e+01 -2.5125791640e+01 1.3625657921e+02 8.0965015410e+01 0.0000e+00 0.0000e+00
       24  2    1    2    0    0 +8.7732222614e+01 -9.3555086496e+00 -2.0643052369e+02 2.3909987212e+02 8.2284380714e+01 0.0000e+00 0.0000e+00
        5  1    1    2  501    0 +8.5979470161e+01 -4.4071750611e+01 -6.7951068465e+02 6.8636116516e+02 4.7000000000e+00 0.0000e+00 -1.0000e+00
      -13  1    5    5    0    0 +3.9978493223e+01 +3.0772998730e+01 -1.3580437879e+02 1.4487265674e+02 0.0000000000e+00 0.0000e+00 1.0000e+00
       14  1    5    5    0    0 +4.7753729391e+01 -4.0128507380e+01 -7.0626144896e+01 9.4227215379e+01 0.0000000000e+00 0.0000e+00 -1.0000e+00
       -5  1    3    3    0  503 -4.6771304723e+01 +9.6275482614e+01 -3.7808329270e+01 1.1361374591e+02 4.7000000000e+00 0.0000e+00 1.0000e+00
       13  1    4    4    0    0 -1.0438469245e+02 +4.5065627977e+00 -9.7768322582e+00 1.0493836083e+02 0.0000000000e+00 0.0000e+00 -1.0000e+00
      -14  1    4    4    0    0 +1.7460432853e-01 -2.7298530392e+01 -1.5348959381e+01 3.1318218378e+01 0.0000000000e+00 0.0000e+00 1.0000e+00
       21  1    1    2  504  502 +1.1942641384e+01 -1.8263318824e+01 -1.0508341344e+02 1.0732520337e+02 0.0000000000e+00 0.0000e+00 -1.0000e+00
       21  1    1    2  505  501 -3.4672941318e+01 -1.7929369345e+00 +2.9322415050e+01 4.5444818262e+01 0.0000000000e+00 0.0000e+00 1.0000e+00
<mgrwt>
<rscale>  4 0.26935409E+03</rscale>
<asrwt>0</asrwt>
<pdfrwt beam="1">  1       21 0.23343466E-01 0.27333644E+03</pdfrwt>
<pdfrwt beam="2">  1       21 0.18097982E+00 0.27333644E+03</pdfrwt>
<totfact> 0.28954524E+03</totfact>
</mgrwt>
</event>
<event>
13      2 +1.4674046e+01 1.84040800e+02 7.54677100e-03 1.16426000e-01
       21 -1    0    0  502  503 +0.0000000000e+00 +0.0000000000e+00 +1.7056176934e+02 1.7056176934e+02 0.0000000000e+00 0.0000e+00 1.0000e+00
        2 -1    0    0  501    0 -0.0000000000e+00 -0.0000000000e+00 -1.2180598296e+03 1.2180598296e+03 0.0000000000e+00 0.0000e+00 1.0000e+00
        6  2    1    2  501    0 +9.8763541060e+01 -5.8606046889e+00 -1.0188666339e+02 2.2457591349e+02 1.7396799997e+02 0.0000e+00 0.0000e+00
       24  2    3    3    0    0 +1.0768767832e+02 -4.1240087427e+01 -3.1525874992e+01 1.4517768575e+02 8.2372924998e+01 0.0000e+00 0.0000e+00
       -6  2    1    2    0  503 +3.8628612656e+01 +8.9925386809e+01 +6.4105190809e+00 1.9849443360e+02 1.7256940780e+02 0.0000e+00 0.0000e+00
      -24  2    5    5    0    0 -3.9816119785e+00 -5.6691120142e+00 +3.5931373534e+01 8.9648164504e+01 8.1839707538e+01 0.0000e+00 0.0000e+00
        5  1    3    3  501    0 -8.9241372596e+00 +3.5379482738e+01 -7.0360788400e+01 7.9398227744e+01 4.7000000000e+00 0.0000e+00 -1.0000e+00
      -13  1    4    4    0    0 +6.8074677971e+01 +1.7709541247e+01 -2.0785496062e+01 7.3347300417e+01 0.0000000000e+00 0.0000e+00 1.0000e+00
       14  1    4    4    0    0 +3.9613000349e+01 -5.8949628674e+01 -1.0740378931e+01 7.1830385333e+01 0.0000000000e+00 0.0000e+00 -1.0000e+00
       -5  1    5    5    0  503 +4.2610224634e+01 +9.5594498823e+01 -2.9520854453e+01 1.0884626910e+02 4.7000000000e+00 0.0000e+00 1.0000e+00
       13  1    6    6    0    0 -5.3540879903e-01 +3.1585109977e+01 +4.1145304492e+01 5.1873325675e+01 0.0000000000e+00 0.0000e+00 -1.0000e+00
      -14  1    6    6    0    0 -3.4462031795e+00 -3.7254221991e+01 -5.2139309582e+00 3.7774838829e+01 0.0000000000e+00 0.0000e+00 1.0000e+00
        2  1    1    2  502    0 -1.3739215372e+02 -8.4064782120e+01 -9.5202191592e+02 9.6555125182e+02 0.0000000000e+00 0.0000e+00 1.0000e+00
<mgrwt>
<rscale>  3 0.18370958E+03</rscale>
<asrwt>0</asrwt>
<pdfrwt beam="1">  1       21 0.26240272E-01 0.18404085E+03</pdfrwt>
<pdfrwt beam="2">  1        2 0.18739382E+00 0.18404085E+03</pdfrwt>
<totfact> 0.34584829E+03</totfact>
</mgrwt>
</event>
<event>
14      3 +1.4674046e+01 2.16907500e+02 7.54677100e-03 1.13643400e-01
       21 -1    0    0  505  502 +0.0000000000e+00 +0.0000000000e+00 +1.2803018075e+03 1.2803018075e+03 0.0000000000e+00 0.0000e+00 -1.0000e+00
       21 -1    0    0  504  503 -0.0000000000e+00 -0.0000000000e+00 -1.0812495664e+02 1.0812495664e+02 0.0000000000e+00 0.0000e+00 -1.0000e+00
       -6  2    1    2    0  503 +3.0027730101e+01 -1.2306014605e+02 +1.3289049109e+02 2.5241911984e+02 1.7323413440e+02 0.0000e+00 0.0000e+00
      -24  2    3    3    0    0 -6.6673994435e+00 -7.7046262441e+01 +1.3979923127e+01 1.1965759232e+02 9.0232590446e+01 0.0000e+00 0.0000e+00
        6  2    1    2  501    0 -1.8124348182e+01 +1.3886192161e+02 +4.3952551148e+02 4.9223346486e+02 1.7175559208e+02 0.0000e+00 0.0000e+00
       24  2    5    5    0    0 -5.2458665434e+01 +1.2290261014e+02 +2.2125024630e+02 2.7064888427e+02 8.0263216418e+01 0.0000e+00 0.0000e+00
        5  1    5    5  501    0 +3.4334317253e+01 +1.5959311475e+01 +2.1827526518e+02 2.2158458059e+02 4.7000000000e+00 0.0000e+00 -1.0000e+00
      -13  1    6    6    0    0 -6.3531252420e+01 +4.7600841961e+01 +1.0344195167e+02 1.3039285853e+02 0.0000000000e+00 0.0000e+00 1.0000e+00
       14  1    6    6    0    0 +1.1072586985e+01 +7.5301768178e+01 +1.1780829463e+02 1.4025602574e+02 0.0000000000e+00 0.0000e+00 -1.0000e+00
       -5  1    3    3    0  503 +3.6695129544e+01 -4.6013883611e+01 +1.1891056796e+02 1.3276152752e+02 4.7000000000e+00 0.0000e+00 1.0000e+00
       13  1    4    4    0    0 +5.5082387734e-01 +1.3109877285e+01 -1.9254286260e+01 2.3300210916e+01 0.0000000000e+00 0.0000e+00 -1.0000e+00
      -14  1    4    4    0    0 -7.2182233208e+00 -9.0156139725e+01 +3.3234209387e+01 9.6357381407e+01 0.0000000000e+00 0.0000e+00 1.0000e+00
       21  1    1    2  504  502 +1.9491814026e+01 +4.4812369495e+00 -1.6776518948e+01 2.6104863275e+01 0.0000000000e+00 0.0000e+00 -1.0000e+00
       21  1    1    2  505  501 -3.1395195945e+01 -2.0283012511e+01 +6.1653736728e+02 6.1766931620e+02 0.0000000000e+00 0.0000e+00 -1.0000e+00
<mgrwt>
<rscale>  4 0.21661215E+03</rscale>
<asrwt>0</asrwt>
<pdfrwt beam="1">  1       21 0.19696950E+00 0.21690751E+03</pdfrwt>
<pdfrwt beam="2">  1       21 0.16634610E-01 0.21690751E+03</pdfrwt>
<totfact> 0.44615159E+03</totfact>
</mgrwt>
</event>
<event>
13      2 +1.4674046e+01 1.80958600e+02 7.54677100e-03 1.16728800e-01
       21 -1    0    0  504  502 +0.0000000000e+00 +0.0000000000e+00 +9.8798391777e+01 9.8798391777e+01 0.0000000000e+00 0.0000e+00 1.0000e+00
       21 -1    0    0  501  503 -0.0000000000e+00 -0.0000000000e+00 -1.2460181773e+03 1.2460181773e+03 0.0000000000e+00 0.0000e+00 1.0000e+00
        6  2    1    2  501    0 -2.2914305512e+00 -7.3556924826e+01 -9.1952036841e+02 9.3815216090e+02 1.7086806969e+02 0.0000e+00 0.0000e+00
       24  2    3    3    0    0 -4.1329125949e+01 -1.0118426089e+02 -7.5092157894e+02 7.6283857565e+02 7.8058462016e+01 0.0000e+00 0.0000e+00
       -6  2    1    2    0  502 +1.1562667515e+01 +5.1132349466e+01 -2.7907757413e+00 1.8045053951e+02 1.7264529051e+02 0.0000e+00 0.0000e+00
      -24  2    5    5    0    0 +3.4520521889e+01 -3.1460338713e+01 +9.7817905807e+00 9.3682027694e+01 8.0617737146e+01 0.0000e+00 0.0000e+00
        5  1    3    3  501    0 +3.9037695398e+01 +2.7627336060e+01 -1.6859878947e+02 1.7531358524e+02 4.7000000000e+00 0.0000e+00 -1.0000e+00
      -13  1    4    4    0    0 +1.9357016737e+00 -8.9384498305e+01 -4.8916428613e+02 4.9726756812e+02 0.0000000000e+00 0.0000e+00 1.0000e+00
       14  1    4    4    0    0 -4.3264827623e+01 -1.1799762580e+01 -2.6175729281e+02 2.6557100754e+02 0.0000000000e+00 0.0000e+00 -1.0000e+00
       -5  1    5    5    0  502 -2.2957854374e+01 +8.2592688179e+01 -1.2572566322e+01 8.6768511811e+01 4.7000000000e+00 0.0000e+00 1.0000e+00
       13  1    6    6    0    0 +2.3745226544e+01 -2.7140973566e+01 -3.3286848569e+01 4.9076292824e+01 0.0000000000e+00 0.0000e+00 -1.0000e+00
      -14  1    6    6    0    0 +1.0775295345e+01 -4.3193651463e+00 +4.3068639150e+01 4.4605734870e+01 0.0000000000e+00 0.0000e+00 1.0000e+00
       21  1    1    2  504  503 -9.2712369637e+00 +2.2424575360e+01 -2.2490864139e+02 2.2621386869e+02 0.0000000000e+00 0.0000e+00 1.0000e+00
<mgrwt>
<rscale>  3 0.18053337E+03</rscale>
<asrwt>0</asrwt>
<pdfrwt beam="1">  1       21 0.15199752E-01 0.18095856E+03</pdfrwt>
<pdfrwt beam="2">  1       21 0.19169511E+00 0.18095856E+03</pdfrwt>
<totfact> 0.58837533E+03</totfact>
</mgrwt>
</event>
<event>
12      1 +1.4674046e+01 1.99937300e+02 7.54677100e-03 1.15113800e-01
       21 -1    0    0  501  502 +0.0000000000e+00 +0.0000000000e+00 +1.1521120657e+02 1.1521120657e+02 0.0000000000e+00 0.0000e+00 -1.0000e+00
       21 -1    0    0  502  503 -0.0000000000e+00 -0.0000000000e+00 -4.3797651189e+02 4.3797651189e+02 0.0000000000e+00 0.0000e+00 -1.0000e+00
       -6  2    1    2    0  503 -4.5331840525e+01 +8.7082505903e+01 -2.9274833238e+02 3.5100969570e+02 1.6693675977e+02 0.0000e+00 0.0000e+00
      -24  2    3    3    0    0 -5.4337029790e+01 +9.1816590127e+01 -1.2653964760e+02 1.8442361620e+02 8.1344875483e+01 0.0000e+00 0.0000e+00
        6  2    1    2  501    0 +4.5331840525e+01 -8.7082505903e+01 -3.0016972937e+01 2.0217802276e+02 1.7417403831e+02 0.0000e+00 0.0000e+00
       24  2    5    5    0    0 -4.0357576010e+00 -1.1734251951e+02 -1.2733153122e+01 1.4156739171e+02 7.8061763908e+01 0.0000e+00 0.0000e+00
        5  1    5    5  501    0 +4.9367598126e+01 +3.0260013603e+01 -1.7283819815e+01 6.0610631043e+01 4.7000000000e+00 0.0000e+00 -1.0000e+00
      -13  1    6    6    0    0 -9.8918582077e-01 -1.8703452172e+01 -3.5636293720e+01 4.0258453048e+01 0.0000000000e+00 0.0000e+00 1.0000e+00
       14  1    6    6    0    0 -3.0465717802e+00 -9.8639067334e+01 +2.2903140598e+01 1.0130893866e+02 0.0000000000e+00 0.0000e+00 -1.0000e+00
       -5  1    3    3    0  503 +9.0051892643e+00 -4.7340842239e+00 -1.6620868478e+02 1.6658607950e+02 4.7000000000e+00 0.0000e+00 1.0000e+00
       13  1    4    4    0    0 -3.5693169288e+01 +7.5021100208e+01 -3.6128783763e+01 9.0595015461e+01 0.0000000000e+00 0.0000e+00 -1.0000e+00
      -14  1    4    4    0    0 -1.8643860501e+01 +1.6795489919e+01 -9.0410863840e+01 9.3828600738e+01 0.0000000000e+00 0.0000e+00 1.0000e+00
<mgrwt>
<rscale>  2 0.19835051E+03</rscale>
<asrwt>0</asrwt>
<pdfrwt beam="1">  1       21 0.17724801E-01 0.19993733E+03</pdfrwt>
<pdfrwt beam="2">  1       21 0.67381002E-01 0.19993733E+03</pdfrwt>
<totfact> 0.58000400E+04</totfact>
</mgrwt>
</event>
<event>
12      1 +1.4674046e+01 1.96745900e+02 7.54677100e-03 1.15272100e-01
       21 -1    0    0  503  502 +0.0000000000e+00 +0.0000000000e+00 +1.3701488981e+02 1.3701488981e+02 0.0000000000e+00 0.0000e+00 1.0000e+00
       21 -1    0    0  501  503 -0.0000000000e+00 -0.0000000000e+00 -6.8540012382e+02 6.8540012382e+02 0.0000000000e+00 0.0000e+00 1.0000e+00
        6  2    1    2  501    0 +6.1021249268e+01 -6.5884001986e+01 -5.8972232980e+02 6.2137350485e+02 1.7397790574e+02 0.0000e+00 0.0000e+00
       24  2    3    3    0    0 +4.3673582134e+01 -5.1676292869e+01 -1.5424175594e+02 1.8529069074e+02 7.7228879171e+01 0.0000e+00 0.0000e+00
       -6  2    1    2    0  502 -6.1021249268e+01 +6.5884001986e+01 +4.1337095786e+01 2.0104150878e+02 1.7505610010e+02 0.0000e+00 0.0000e+00
      -24  2    5    5    0    0 -8.5027913627e+00 -3.2218158320e+01 +2.1088675064e+01 8.7841195969e+01 7.8492269090e+01 0.0000e+00 0.0000e+00
        5  1    3    3  501    0 +1.7347667134e+01 -1.4207709118e+01 -4.3548057386e+02 4.3608281411e+02 4.7000000000e+00 0.0000e+00 -1.0000e+00
      -13  1    4    4    0    0 -1.9275100048e+01 -2.8411094545e+01 -6.6356022798e+01 7.4711722886e+01 0.0000000000e+00 0.0000e+00 1.0000e+00
       14  1    4    4    0    0 +6.2948682181e+01 -2.3265198323e+01 -8.7885733143e+01 1.1057896785e+02 0.0000000000e+00 0.0000e+00 -1.0000e+00
       -5  1    5    5    0  502 -5.2518457905e+01 +9.8102160307e+01 +2.0248420722e+01 1.1320031281e+02 4.7000000000e+00 0.0000e+00 1.0000e+00
       13  1    6    6    0    0 -4.0962802372e+01 -2.1758869408e+01 -2.3777194835e+00 4.6444086018e+01 0.0000000000e+00 0.0000e+00 -1.0000e+00
      -14  1    6    6    0    0 +3.2460011009e+01 -1.0459288912e+01 +2.3466394547e+01 4.1397109951e+01 0.0000000000e+00 0.0000e+00 1.0000e+00
<mgrwt>
<rscale>  2 0.19650574E+03</rscale>
<asrwt>0</asrwt>
<pdfrwt beam="1">  1       21 0.21079215E-01 0.19674586E+03</pdfrwt>
<pdfrwt beam="2">  1       21 0.10544617E+00 0.19674586E+03</pdfrwt>
<totfact> 0.15088600E+04</totfact>
</mgrwt>
</event>
<event>
13      2 +1.4674046e+01 1.82179900e+02 7.54677100e-03 1.16586400e-01
       21 -1    0    0  504  502 +0.0000000000e+00 +0.0000000000e+00 +2.9997029276e+02 2.9997029276e+02 0.0000000000e+00 0.0000e+00 -1.0000e+00
       21 -1    0    0  502  503 -0.0000000000e+00 -0.0000000000e+00 -3.3934799987e+02 3.3934799987e+02 0.0000000000e+00 0.0000e+00 1.0000e+00
       -6  2    1    2    0  503 +1.9763472127e+01 +5.3139018657e+01 -9.6399506683e+01 2.0653684124e+02 1.7363827851e+02 0.0000e+00 0.0000e+00
      -24  2    3    3    0    0 -1.7256819652e+01 -2.6337212064e+00 -1.0998794564e+02 1.3806906642e+02 8.1614855294e+01 0.0000e+00 0.0000e+00
        6  2    1    2  501    0 -7.4871564135e+01 -8.3852792005e-01 -1.3130861229e+02 2.2970366539e+02 1.7296059663e+02 0.0000e+00 0.0000e+00
       24  2    5    5    0    0 -8.1323754137e+01 -1.3320098392e+01 -1.8664398670e+01 1.1608927713e+02 7.9607678518e+01 0.0000e+00 0.0000e+00
        5  1    5    5  501    0 +6.4521900013e+00 +1.2481570472e+01 -1.1264421362e+02 1.1361438826e+02 4.7000000000e+00 0.0000e+00 -1.0000e+00
      -13  1    6    6    0    0 +6.9693675612e+00 -1.4882613257e+01 -2.2307519669e+01 2.7707213778e+01 0.0000000000e+00 0.0000e+00 1.0000e+00
       14  1    6    6    0    0 -8.8293121698e+01 +1.5625148653e+00 +3.6431209991e+00 8.8382063353e+01 0.0000000000e+00 0.0000e+00 -1.0000e+00
       -5  1    3    3    0  503 +3.7020291778e+01 +5.5772739863e+01 +1.3588438954e+01 6.8467774817e+01 4.7000000000e+00 0.0000e+00 1.0000e+00
       13  1    4    4    0    0 -2.9811427696e+01 -1.7969344970e+01 -1.0114408168e+01 3.6248032120e+01 0.0000000000e+00 0.0000e+00 -1.0000e+00
      -14  1    4    4    0    0 +1.2554608044e+01 +1.5335623764e+01 -9.9873537468e+01 1.0182103430e+02 0.0000000000e+00 0.0000e+00 1.0000e+00
       21  1    1    2  504  501 +5.5108092009e+01 -5.2300490736e+01 +1.8833041187e+02 2.0307778601e+02 0.0000000000e+00 0.0000e+00 -1.0000e+00
<mgrwt>
<rscale>  3 0.18201824E+03</rscale>
<asrwt>0</asrwt>
<pdfrwt beam="1">  1       21 0.46149276E-01 0.18217990E+03</pdfrwt>
<pdfrwt beam="2">  1       21 0.52207384E-01 0.18217990E+03</pdfrwt>
<totfact> 0.15765181E+04</totfact>
</mgrwt>
</event>
<event>
13      2 +1.4674046e+01 1.98502300e+02 7.54677100e-03 1.15182400e-01
        2 -1    0    0  501    0 -0.0000000000e+00 +0.0000000000e+00 +7.6718769884e+02 7.6718769884e+02 0.0000000000e+00 0.0000e+00 1.0000e+00
       21 -1    0    0  502  503 +0.0000000000e+00 -0.0000000000e+00 -7.2491862203e+01 7.2491862203e+01 0.0000000000e+00 0.0000e+00 1.0000e+00
        6  2    1    2  501    0 +9.8549991403e+01 +4.6303329806e+01 +2.1106723084e+02 2.9131245275e+02 1.6869342025e+02 0.0000e+00 0.0000e+00
       24  2    3    3    0    0 +5.7039150480e+01 +4.3139256693e+01 +2.2393007062e+02 2.4748661653e+02 7.7398247256e+01 0.0000e+00 0.0000e+00
       -6  2    1    2    0  503 -8.1266932680e+01 -2.2389943439e+01 +2.6377714182e+02 3.2654461084e+02 1.7305310862e+02 0.0000e+00 0.0000e+00
      -24  2    5    5    0    0 +1.3478106658e+01 -4.5574669339e+01 +1.1456856471e+02 1.4822062625e+02 8.1146091601e+01 0.0000e+00 0.0000e+00
        5  1    3    3  501    0 +4.1510840923e+01 +3.1640731130e+00 -1.2862839784e+01 4.3825836217e+01 4.7000000000e+00 0.0000e+00 -1.0000e+00
      -13  1    4    4    0    0 +6.1769089116e+01 +8.8399934396e-01 +1.4963053385e+02 1.6188112455e+02 0.0000000000e+00 0.0000e+00 1.0000e+00
       14  1    4    4    0    0 -4.7299386365e+00 +4.2255257349e+01 +7.4299536775e+01 8.5605491986e+01 0.0000000000e+00 0.0000e+00 -1.0000e+00
       -5  1    5    5    0  503 -9.4745039337e+01 +2.3184725900e+01 +1.4920857711e+02 1.7832398458e+02 4.7000000000e+00 0.0000e+00 1.0000e+00
       13  1    6    6    0    0 -1.0236257407e+00 -3.9125712878e+01 +7.3369320709e+00 3.9820846175e+01 0.0000000000e+00 0.0000e+00 -1.0000e+00
      -14  1    6    6    0    0 +1.4501732398e+01 -6.4489564605e+00 +1.0723163264e+02 1.0839978008e+02 0.0000000000e+00 0.0000e+00 1.0000e+00
        2  1    1    2  502    0 -1.7283058724e+01 -2.3913386367e+01 +2.1985146397e+02 2.2182249746e+02 0.0000000000e+00 0.0000e+00 1.0000e+00
<mgrwt>
<rscale>  3 0.19754821E+03</rscale>
<asrwt>0</asrwt>
<pdfrwt beam="2">  1       21 0.11152595E-01 0.19850233E+03</pdfrwt>
<pdfrwt beam="1">  1        2 0.11802887E+00 0.19850233E+03</pdfrwt>
<totfact> 0.31597660E+04</totfact>
</mgrwt>
</event>
<event>
12      1 +1.4674046e+01 2.30709500e+02 7.54677100e-03 1.12632300e-01
       21 -1    0    0  503  502 +0.0000000000e+00 +0.0000000000e+00 +4.4387781817e+02 4.4387781817e+02 0.0000000000e+00 0.0000e+00 1.0000e+00
       21 -1    0    0  501  503 -0.0000000000e+00 -0.0000000000e+00 -1.4554957516e+02 1.4554957516e+02 0.0000000000e+00 0.0000e+00 -1.0000e+00
        6  2    1    2  501    0 +6.6339485263e+01 -1.3610219404e+02 +2.4465551867e+01 2.3200306182e+02 1.7407504973e+02 0.0000e+00 0.0000e+00
       24  2    3    3    0    0 +3.7871197741e+01 -7.3006284859e+01 -5.6098658488e+01 1.2568176038e+02 7.6711799363e+01 0.0000e+00 0.0000e+00
       -6  2    1    2    0  502 -6.6339485263e+01 +1.3610219404e+02 +2.7386269114e+02 3.5742433151e+02 1.7270392186e+02 0.0000e+00 0.0000e+00
      -24  2    5    5    0    0 +8.9978019660e+00 +2.1647172279e+01 +4.6629993623e+01 9.2033209434e+01 7.5803659711e+01 0.0000e+00 0.0000e+00
        5  1    3    3  501    0 +2.8468287523e+01 -6.3095909181e+01 +8.0564210356e+01 1.0632130144e+02 4.7000000000e+00 0.0000e+00 -1.0000e+00
      -13  1    4    4    0    0 +1.1652977249e+01 -1.4825568555e+01 -5.8859889951e+01 6.1806763438e+01 0.0000000000e+00 0.0000e+00 1.0000e+00
       14  1    4    4    0    0 +2.6218220492e+01 -5.8180716304e+01 +2.7612314622e+00 6.3874996944e+01 0.0000000000e+00 0.0000e+00 -1.0000e+00
       -5  1    5    5    0  502 -7.5337287229e+01 +1.1445502176e+02 +2.2723269752e+02 2.6539112207e+02 4.7000000000e+00 0.0000e+00 1.0000e+00
       13  1    6    6    0    0 -1.6904054403e+01 +1.7308850739e+01 -1.2573539092e+01 2.7266045817e+01 0.0000000000e+00 0.0000e+00 -1.0000e+00
      -14  1    6    6    0    0 +2.5901856369e+01 +4.3383215401e+00 +5.9203532714e+01 6.4767163617e+01 0.0000000000e+00 0.0000e+00 1.0000e+00
<mgrwt>
<rscale>  2 0.23045084E+03</rscale>
<asrwt>0</asrwt>
<pdfrwt beam="1">  1       21 0.68288895E-01 0.23070947E+03</pdfrwt>
<pdfrwt beam="2">  1       21 0.22392242E-01 0.23070947E+03</pdfrwt>
<totfact> 0.35832072E+04</totfact>
</mgrwt>
</event>
<event>
13      3 +1.4674046e+01 4.25324000e+02 7.54677100e-03 1.06041100e-01
        1 -1    0    0  501    0 -0.0000000000e+00 +0.0000000000e+00 +2.3744967529e+03 2.3744967529e+03 0.0000000000e+00 0.0000e+00 -1.0000e+00
        2 -1    0    0  503    0 +0.0000000000e+00 -0.0000000000e+00 -9.3103024308e+02 9.3103024308e+02 0.0000000000e+00 0.0000e+00 1.0000e+00
       24  2    1    2    0    0 -1.3579268631e+02 -2.2200823746e+02 +6.1916534005e+01 2.7805739632e+02 7.5861369020e+01 0.0000e+00 0.0000e+00
       -6  2    1    2    0  502 +7.7679214447e+00 +1.0105027064e+02 +5.0743716431e+01 2.0595151563e+02 1.7195814675e+02 0.0000e+00 0.0000e+00
      -24  2    4    4    0    0 +4.7550091894e+01 +3.5214942293e+01 -1.9805822992e+01 1.0147070851e+02 8.0018314535e+01 0.0000e+00 0.0000e+00
        5  1    1    2  501    0 +1.4185748745e+02 +7.4524968812e+01 +8.2582196583e+01 1.8033143629e+02 4.7000000000e+00 0.0000e+00 -1.0000e+00
      -13  1    3    3    0    0 -9.5869890446e+01 -1.5590189933e+02 +6.7385269589e+00 1.8314433067e+02 0.0000000000e+00 0.0000e+00 1.0000e+00
       14  1    3    3    0    0 -3.9922795866e+01 -6.6106338129e+01 +5.5178007046e+01 9.4913065656e+01 0.0000000000e+00 0.0000e+00 -1.0000e+00
       -5  1    4    4    0  502 -3.9782170449e+01 +6.5835328346e+01 +7.0549539423e+01 1.0448080712e+02 4.7000000000e+00 0.0000e+00 1.0000e+00
       13  1    5    5    0    0 +3.3797061732e+00 -2.3648910754e+01 -1.3904730034e+01 2.7641181432e+01 0.0000000000e+00 0.0000e+00 -1.0000e+00
      -14  1    5    5    0    0 +4.4170385721e+01 +5.8863853047e+01 -5.9010929588e+00 7.3829527077e+01 0.0000000000e+00 0.0000e+00 1.0000e+00
        2  1    1    2  502    0 +7.0482274913e+00 +2.1175526452e+01 -6.9616439849e+02 6.9652203853e+02 0.0000000000e+00 0.0000e+00 1.0000e+00
        1  1    1    2  503    0 -2.0880950074e+01 +2.5257471560e+01 +1.9443884613e+03 1.9446646093e+03 0.0000000000e+00 0.0000e+00 -1.0000e+00
<mgrwt>
<rscale>  4 0.35542331E+03</rscale>
<asrwt>0</asrwt>
<pdfrwt beam="2">  1        2 0.14323542E+00 0.42532400E+03</pdfrwt>
<pdfrwt beam="1">  1        1 0.36530719E+00 0.42532400E+03</pdfrwt>
<totfact> 0.71213181E+00</totfact>
</mgrwt>
</event>
<event>
12      1 +1.4674046e+01 2.25457600e+02 7.54677100e-03 1.13002300e-01
       21 -1    0    0  501  502 +0.0000000000e+00 +0.0000000000e+00 +1.0376211355e+02 1.0376211355e+02 0.0000000000e+00 0.0000e+00 1.0000e+00
       21 -1    0    0  502  503 -0.0000000000e+00 -0.0000000000e+00 -5.0517426324e+02 5.0517426324e+02 0.0000000000e+00 0.0000e+00 1.0000e+00
       -6  2    1    2    0  503 -1.4254161031e+02 +1.6440294449e+01 -2.5695118083e+02 3.4184067562e+02 1.7390441118e+02 0.0000e+00 0.0000e+00
      -24  2    3    3    0    0 -1.5071734180e+02 +5.0939792562e+01 -2.4741013871e+02 3.0482474067e+02 7.9973534399e+01 0.0000e+00 0.0000e+00
        6  2    1    2  501    0 +1.4254161031e+02 -1.6440294449e+01 -1.4446096886e+02 2.6709570117e+02 1.7286627232e+02 0.0000e+00 0.0000e+00
       24  2    5    5    0    0 +1.0227771168e+02 -1.3908278407e+01 -1.7337345789e+02 2.1723976210e+02 8.0502098245e+01 0.0000e+00 0.0000e+00
        5  1    5    5  501    0 +4.0263898631e+01 -2.5320160423e+00 +2.8912489030e+01 4.9855939066e+01 4.7000000000e+00 0.0000e+00 -1.0000e+00
      -13  1    6    6    0    0 +1.1090358116e+02 -2.7696768207e+01 -1.4638048499e+02 1.8572550086e+02 0.0000000000e+00 0.0000e+00 1.0000e+00
       14  1    6    6    0    0 -8.6258694876e+00 +1.3788489800e+01 -2.6992972902e+01 3.1514261239e+01 0.0000000000e+00 0.0000e+00 -1.0000e+00
       -5  1    3    3    0  503 +8.1757314947e+00 -3.4499498112e+01 -9.5410421262e+00 3.7015934951e+01 4.7000000000e+00 0.0000e+00 1.0000e+00
       13  1    4    4    0    0 -2.8021402050e+01 +7.4437475273e+00 -1.1708556380e+02 1.2062187862e+02 0.0000000000e+00 0.0000e+00 -1.0000e+00
      -14  1    4    4    0    0 -1.2269593975e+02 +4.3496045034e+01 -1.3032457491e+02 1.8420286206e+02 0.0000000000e+00 0.0000e+00 1.0000e+00
<mgrwt>
<rscale>  2 0.22525741E+03</rscale>
<asrwt>0</asrwt>
<pdfrwt beam="1">  1       21 0.15963402E-01 0.22545762E+03</pdfrwt>
<pdfrwt beam="2">  1       21 0.77719116E-01 0.22545762E+03</pdfrwt>
<totfact> 0.50602904E+04</totfact>
</mgrwt>
</event>
<event>
14      3 +1.4674046e+01 2.24856400e+02 7.54677100e-03 1.13186300e-01
       21 -1    0    0  504  502 +0.0000000000e+00 +0.0000000000e+00 +6.2208435190e+02 6.2208435190e+02 0.0000000000e+00 0.0000e+00 -1.0000e+00
       21 -1    0    0  502  503 -0.0000000000e+00 -0.0000000000e+00 -2.6733097174e+02 2.6733097174e+02 0.0000000000e+00 0.0000e+00 -1.0000e+00
       -6  2    1    2    0  505 -1.1712998488e+02 -5.0338182320e+01 +1.8222971939e+02 2.7458090194e+02 1.6103923474e+02 0.0000e+00 0.0000e+00
      -24  2    3    3    0    0 -8.5128425807e+01 -8.8631732743e+01 +9.0544505701e+01 1.7008801129e+02 7.5027935753e+01 0.0000e+00 0.0000e+00
        6  2    1    2  501    0 +1.3553687741e+02 +6.3098779153e+01 -1.3847817174e+02 2.6675742228e+02 1.7213836651e+02 0.0000e+00 0.0000e+00
       24  2    5    5    0    0 +1.5928048628e+02 +7.9967904121e+01 -1.3200998279e+02 2.3655388262e+02 8.2255485090e+01 0.0000e+00 0.0000e+00
        5  1    5    5  501    0 -2.3743608873e+01 -1.6869124968e+01 -6.4681889428e+00 3.0203539655e+01 4.7000000000e+00 0.0000e+00 -1.0000e+00
      -13  1    6    6    0    0 +3.3765246826e+01 -4.2237830943e+00 -6.0365334456e+01 6.9295785159e+01 0.0000000000e+00 0.0000e+00 1.0000e+00
       14  1    6    6    0    0 +1.2551523946e+02 +8.4191687215e+01 -7.1644648336e+01 1.6725809746e+02 0.0000000000e+00 0.0000e+00 -1.0000e+00
       -5  1    3    3    0  505 -3.2001559070e+01 +3.8293550423e+01 +9.1685213688e+01 1.0449289065e+02 4.7000000000e+00 0.0000e+00 1.0000e+00
       13  1    4    4    0    0 -4.3635098678e+01 -1.4632433754e+01 +6.8339120996e+01 8.2391537264e+01 0.0000000000e+00 0.0000e+00 -1.0000e+00
      -14  1    4    4    0    0 -4.1493327128e+01 -7.3999298989e+01 +2.2205384705e+01 8.7696474028e+01 0.0000000000e+00 0.0000e+00 1.0000e+00
       21  1    1    2  504  501 +2.9032368399e+01 +1.1370194849e+01 +2.8868476229e+02 2.9036365428e+02 0.0000000000e+00 0.0000e+00 -1.0000e+00
       21  1    1    2  505  503 -4.7439260932e+01 -2.4130791682e+01 +2.2317070215e+01 5.7713345146e+01 0.0000000000e+00 0.0000e+00 -1.0000e+00
<mgrwt>
<rscale>  4 0.22273171E+03</rscale>
<asrwt>0</asrwt>
<pdfrwt beam="1">  1       21 0.95705285E-01 0.22485641E+03</pdfrwt>
<pdfrwt beam="2">  1       21 0.41127842E-01 0.22485641E+03</pdfrwt>
<totfact> 0.50597680E+03</totfact>
</mgrwt>
</event>
<event>
14      3 +1.4674046e+01 1.80944800e+02 7.54677100e-03 1.16726100e-01
       21 -1    0    0  505  502 +0.0000000000e+00 +0.0000000000e+00 +1.0408778001e+03 1.0408778001e+03 0.0000000000e+00 0.0000e+00 1.0000e+00
       21 -1    0    0  504  503 -0.0000000000e+00 -0.0000000000e+00 -1.4769968469e+02 1.4769968469e+02 0.0000000000e+00 0.0000e+00 1.0000e+00
       -6  2    1    2    0  503 +7.4017650487e+01 -5.9754622529e+01 -9.0253414661e+00 1.9870302678e+02 1.7421885250e+02 0.0000e+00 0.0000e+00
      -24  2    3    3    0    0 -5.3551036498e+00 +1.0057416334e+01 +2.9101961049e+01 8.6232870443e+01 8.0370112912e+01 0.0000e+00 0.0000e+00
        6  2    1    2  501    0 -8.4907667983e+00 +7.7726335849e+00 +7.2614700056e+02 7.4647321894e+02 1.7262761431e+02 0.0000e+00 0.0000e+00
       24  2    5    5    0    0 +5.4444359278e+01 +2.2033334277e+00 +3.2927050288e+02 3.4457162450e+02 8.5682538553e+01 0.0000e+00 0.0000e+00
        5  1    5    5  501    0 -6.2935126077e+01 +5.5693001571e+00 +3.9687649768e+02 4.0190159443e+02 4.7000000000e+00 0.0000e+00 -1.0000e+00
      -13  1    6    6    0    0 +7.6281865448e+00 -3.5807610795e+01 +7.7981821081e+01 8.6148352509e+01 0.0000000000e+00 0.0000e+00 1.0000e+00
       14  1    6    6    0    0 +4.6816172733e+01 +3.8010944223e+01 +2.5128868179e+02 2.5842327199e+02 0.0000000000e+00 0.0000e+00 -1.0000e+00
       -5  1    3    3    0  503 +7.9372754137e+01 -6.9812038863e+01 -3.8127302515e+01 1.1247015634e+02 4.7000000000e+00 0.0000e+00 1.0000e+00
       13  1    4    4    0    0 -4.0795565443e+01 +4.0617427099e+00 +1.6954621048e+00 4.1032310505e+01 0.0000000000e+00 0.0000e+00 -1.0000e+00
      -14  1    4    4    0    0 +3.5440461793e+01 +5.9956736243e+00 +2.7406498944e+01 4.5200559938e+01 0.0000000000e+00 0.0000e+00 1.0000e+00
       21  1    1    2  504  502 -3.2824440460e+01 +3.3920454277e+01 -1.4372951248e+01 4.9341897384e+01 0.0000000000e+00 0.0000e+00 1.0000e+00
       21  1    1    2  505  501 -3.2702443228e+01 +1.8061534667e+01 +1.9042940755e+02 1.9405934167e+02 0.0000000000e+00 0.0000e+00 1.0000e+00
<mgrwt>
<rscale>  4 0.18056070E+03</rscale>
<asrwt>0</asrwt>
<pdfrwt beam="1">  1       21 0.16013504E+00 0.18094482E+03</pdfrwt>
<pdfrwt beam="2">  1       21 0.22723029E-01 0.18094482E+03</pdfrwt>
<totfact> 0.46078677E+03</totfact>
</mgrwt>
</event>
<event>
13      2 +1.4674046e+01 2.04288300e+02 7.54677100e-03 1.14650200e-01
       21 -1    0    0  502  503 +0.0000000000e+00 +0.0000000000e+00 +3.8342051245e+02 3.8342051245e+02 0.0000000000e+00 0.0000e+00 -1.0000e+00
       -2 -1    0    0    0  501 -0.0000000000e+00 -0.0000000000e+00 -3.0606654296e+02 3.0606654296e+02 0.0000000000e+00 0.0000e+00 1.0000e+00
       -6  2    1    2    0  501 +1.0095338435e+02 -3.6648712022e+01 +2.9430729726e+02 3.5747111647e+02 1.7214557789e+02 0.0000e+00 0.0000e+00
      -24  2    3    3    0    0 +1.5977929353e+01 +1.4883013280e+01 +2.1418641200e+02 2.2972999968e+02 8.0145214182e+01 0.0000e+00 0.0000e+00
        6  2    1    2  502    0 -1.0510452051e+02 +1.5894953625e+01 -1.2844498906e+02 2.4101222231e+02 1.7403783009e+02 0.0000e+00 0.0000e+00
       24  2    5    5    0    0 +1.2977343297e+01 -2.5055717416e+00 -7.3413221540e+01 1.0935930236e+02 7.9970410693e+01 0.0000e+00 0.0000e+00
        5  1    5    5  502    0 -1.1808186381e+02 +1.8400525367e+01 -5.5031767523e+01 1.3165291995e+02 4.7000000000e+00 0.0000e+00 -1.0000e+00
      -13  1    6    6    0    0 -7.1850999026e+00 -3.3948676434e+01 -1.0607632309e+01 3.6285812040e+01 0.0000000000e+00 0.0000e+00 1.0000e+00
       14  1    6    6    0    0 +2.0162443200e+01 +3.1443104692e+01 -6.2805589231e+01 7.3073490317e+01 0.0000000000e+00 0.0000e+00 -1.0000e+00
       -5  1    3    3    0  501 +8.4975454997e+01 -5.1531725302e+01 +8.0120885257e+01 1.2774111679e+02 4.7000000000e+00 0.0000e+00 1.0000e+00
       13  1    4    4    0    0 +4.5549407616e+00 -3.3193628358e+01 +7.9917352697e+01 8.6656492607e+01 0.0000000000e+00 0.0000e+00 -1.0000e+00
      -14  1    4    4    0    0 +1.1422988592e+01 +4.8076641638e+01 +1.3426905931e+02 1.4307350707e+02 0.0000000000e+00 0.0000e+00 1.0000e+00
       -2  1    1    2    0  503 +4.1511361604e+00 +2.0753758396e+01 -8.8508338715e+01 9.1003716633e+01 0.0000000000e+00 0.0000e+00 1.0000e+00
<mgrwt>
<rscale>  3 0.20388468E+03</rscale>
<asrwt>0</asrwt>
<pdfrwt beam="1">  1       21 0.58987771E-01 0.20428828E+03</pdfrwt>
<pdfrwt beam="2">  1       -2 0.47087161E-01 0.20428828E+03</pdfrwt>
<totfact> 0.93861972E+02</totfact>
</mgrwt>
</event>
<event>
12      2 +1.4674046e+01 2.69787200e+02 7.54677100e-03 1.11498900e-01
       21 -1    0    0  504  502 +0.0000000000e+00 +0.0000000000e+00 +2.5034212917e+02 2.5034212917e+02 0.0000000000e+00 0.0000e+00 1.0000e+00
       21 -1    0    0  501  503 -0.0000000000e+00 -0.0000000000e+00 -6.6558410934e+02 6.6558410934e+02 0.0000000000e+00 0.0000e+00 -1.0000e+00
       24  2    1    2    0    0 +3.5033908927e+00 +7.6024406148e+01 -1.6480953325e+02 1.9605151699e+02 7.4040738710e+01 0.0000e+00 0.0000e+00
       -6  2    1    2    0  502 -6.3027526429e-01 +6.0623214025e+01 -1.6678984274e+01 1.8444752844e+02 1.7339876270e+02 0.0000e+00 0.0000e+00
      -24  2    4    4    0    0 -5.0227010658e+01 +6.8364287452e+01 -4.2706345577e+01 1.2770888274e+02 8.5377387984e+01 0.0000e+00 0.0000e+00
        5  1    1    2  501    0 +3.7110401601e+00 -1.6226152419e+02 -3.6608526828e+02 4.0047857334e+02 4.7000000000e+00 0.0000e+00 -1.0000e+00
      -13  1    3    3    0    0 +2.3089330128e+01 +2.5841707071e+01 -1.2320673005e+02 1.2798753580e+02 0.0000000000e+00 0.0000e+00 1.0000e+00
       14  1    3    3    0    0 -1.9585939235e+01 +5.0182699077e+01 -4.1602803197e+01 6.8063981196e+01 0.0000000000e+00 0.0000e+00 -1.0000e+00
       -5  1    4    4    0  502 +4.9596735394e+01 -7.7410734270e+00 +2.6027361303e+01 5.6738645701e+01 4.7000000000e+00 0.0000e+00 1.0000e+00
       13  1    5    5    0    0 -4.4285389933e+01 +4.9436590046e+01 +1.3826420352e+01 6.7796328047e+01 0.0000000000e+00 0.0000e+00 -1.0000e+00
      -14  1    5    5    0    0 -5.9416207251e+00 +1.8927697406e+01 -5.6532765929e+01 5.9912554690e+01 0.0000000000e+00 0.0000e+00 1.0000e+00
       21  1    1    2  504  503 -6.5841557885e+00 +2.5613904021e+01 +1.3233180563e+02 1.3494861974e+02 0.0000000000e+00 0.0000e+00 1.0000e+00
<mgrwt>
<rscale>  3 0.24735323E+03</rscale>
<asrwt>0</asrwt>
<pdfrwt beam="1">  1       21 0.38514174E-01 0.26978722E+03</pdfrwt>
<pdfrwt beam="2">  1       21 0.10239755E+00 0.26978722E+03</pdfrwt>
<totfact> 0.47825118E+03</totfact>
</mgrwt>
</event>
<event>
13      2 +1.4674046e+01 1.92069900e+02 7.54677100e-03 1.15666200e-01
       21 -1    0    0  504  502 +0.0000000000e+00 +0.0000000000e+00 +1.3749558235e+02 1.3749558235e+02 0.0000000000e+00 0.0000e+00 -1.0000e+00
       21 -1    0    0  501  503 -0.0000000000e+00 -0.0000000000e+00 -5.0555413659e+02 5.0555413659e+02 0.0000000000e+00 0.0000e+00 -1.0000e+00
        6  2    1    2  501    0 -3.9757600222e+01 +8.8398788126e+01 -3.5820030359e+02 4.0916945784e+02 1.7238670257e+02 0.0000e+00 0.0000e+00
       24  2    3    3    0    0 +1.6015440541e+01 +3.6039312242e+00 -8.1243309846e+01 1.1416426091e+02 7.8508091426e+01 0.0000e+00 0.0000e+00
       -6  2    1    2    0  502 +2.9148535057e+01 -3.8868634788e+01 -2.5994311433e+01 1.8071861316e+02 1.7211363993e+02 0.0000e+00 0.0000e+00
      -24  2    5    5    0    0 -5.4426672415e+00 -8.7273598296e+01 -1.2270918281e+01 1.1948126109e+02 8.0491569313e+01 0.0000e+00 0.0000e+00
        5  1    3    3  501    0 -5.5773040764e+01 +8.4794856902e+01 -2.7695699374e+02 2.9500519693e+02 4.7000000000e+00 0.0000e+00 -1.0000e+00
      -13  1    4    4    0    0 +2.6156697759e+01 +2.4550308402e+01 -7.2514015867e+00 3.6598815626e+01 0.0000000000e+00 0.0000e+00 1.0000e+00
       14  1    4    4    0    0 -1.0141257218e+01 -2.0946377178e+01 -7.3991908259e+01 7.7565445288e+01 0.0000000000e+00 0.0000e+00 -1.0000e+00
       -5  1    5    5    0  502 +3.4591202298e+01 +4.8404963507e+01 -1.3723393152e+01 6.1237352067e+01 4.7000000000e+00 0.0000e+00 1.0000e+00
       13  1    6    6    0    0 +3.1977929041e+01 -6.4871167082e+01 -2.0333071708e+01 7.5128490398e+01 0.0000000000e+00 0.0000e+00 -1.0000e+00
      -14  1    6    6    0    0 -3.7420596282e+01 -2.2402431214e+01 +8.0621534270e+00 4.4352770695e+01 0.0000000000e+00 0.0000e+00 1.0000e+00
       21  1    1    2  504  503 +1.0609065166e+01 -4.9530153338e+01 +1.6136060782e+01 5.3161647932e+01 0.0000000000e+00 0.0000e+00 1.0000e+00
<mgrwt>
<rscale>  3 0.19200857E+03</rscale>
<asrwt>0</asrwt>
<pdfrwt beam="1">  1       21 0.21153166E-01 0.19206986E+03</pdfrwt>
<pdfrwt beam="2">  1       21 0.77777560E-01 0.19206986E+03</pdfrwt>
<totfact> 0.30468710E+04</totfact>
</mgrwt>
</event>
<event>
14      3 +1.4674046e+01 2.37659600e+02 7.54677100e-03 1.12140000e-01
       21 -1    0    0  504  502 +0.0000000000e+00 +0.0000000000e+00 +1.0059228081e+03 1.0059228081e+03 0.0000000000e+00 0.0000e+00 -1.0000e+00
       21 -1    0    0  505  503 -0.0000000000e+00 -0.0000000000e+00 -1.1262477528e+02 1.1262477528e+02 0.0000000000e+00 0.0000e+00 -1.0000e+00
        6  2    1    2  501    0 +1.0961011401e+02 +1.0780809823e+02 +2.5340588915e+02 3.4246860940e+02 1.7156118625e+02 0.0000e+00 0.0000e+00
       24  2    3    3    0    0 +1.1883403449e+02 +3.0208281569e+01 +1.2700223763e+02 1.9378510199e+02 7.9931404126e+01 0.0000e+00 0.0000e+00
       -6  2    1    2    0  502 -9.2115549349e+01 -1.4428116061e+02 +6.3532356455e+02 6.7989960985e+02 1.7124578847e+02 0.0000e+00 0.0000e+00
      -24  2    5    5    0    0 -6.6485987330e+01 -1.6879295804e+02 +5.9029877271e+02 6.2239287509e+02 7.7516454423e+01 0.0000e+00 0.0000e+00
        5  1    3    3  501    0 -9.2239204776e+00 +7.7599816658e+01 +1.2640365153e+02 1.4868350740e+02 4.7000000000e+00 0.0000e+00 -1.0000e+00
      -13  1    4    4    0    0 +5.3611075290e+01 -8.4503869981e+00 +9.9112263082e+01 1.1299910233e+02 0.0000000000e+00 0.0000e+00 1.0000e+00
       14  1    4    4    0    0 +6.5222959196e+01 +3.8658668567e+01 +2.7889974543e+01 8.0785999664e+01 0.0000000000e+00 0.0000e+00 -1.0000e+00
       -5  1    5    5    0  502 -2.5629562019e+01 +2.4511797435e+01 +4.5024791843e+01 5.7506734764e+01 4.7000000000e+00 0.0000e+00 1.0000e+00
       13  1    6    6    0    0 -2.6919190409e+01 -9.8207827326e+01 +2.0756071199e+02 2.3119444051e+02 0.0000000000e+00 0.0000e+00 -1.0000e+00
      -14  1    6    6    0    0 -3.9566796921e+01 -7.0585130718e+01 +3.8273806072e+02 3.9119843458e+02 0.0000000000e+00 0.0000e+00 1.0000e+00
       21  1    1    2  504  503 -3.6471989039e+01 +9.1833847334e+00 -3.0083903729e+01 4.8162036950e+01 0.0000000000e+00 0.0000e+00 1.0000e+00
       21  1    1    2  505  501 +1.8977424380e+01 +2.7289677649e+01 +3.4652482840e+01 4.8017327177e+01 0.0000000000e+00 0.0000e+00 -1.0000e+00
<mgrwt>
<rscale>  4 0.23760271E+03</rscale>
<asrwt>0</asrwt>
<pdfrwt beam="1">  1       21 0.15475735E+00 0.23765962E+03</pdfrwt>
<pdfrwt beam="2">  1       21 0.17326889E-01 0.23765962E+03</pdfrwt>
<totfact> 0.80208393E+03</totfact>
</mgrwt>
</event>
<event>
13      2 +1.4674046e+01 1.78824100e+02 7.54677100e-03 1.16983100e-01
       21 -1    0    0  504  502 +0.0000000000e+00 +0.0000000000e+00 +5.7743876282e+02 5.7743876282e+02 0.0000000000e+00 0.0000e+00 -1.0000e+00
       21 -1    0    0  501  503 -0.0000000000e+00 -0.0000000000e+00 -7.0359904705e+01 7.0359904705e+01 0.0000000000e+00 0.0000e+00 -1.0000e+00
        6  2    1    2  501    0 +3.3698901328e+01 +5.6630990058e+01 +2.6877417993e+02 3.2628434772e+02 1.7285609847e+02 0.0000e+00 0.0000e+00
       24  2    3    3    0    0 -3.6935558912e+01 -6.8218881130e+00 +1.2043925019e+02 1.5010025052e+02 8.1324649099e+01 0.0000e+00 0.0000e+00
       -6  2    1    2    0  502 -1.3940709218e+01 -2.0614884641e+01 +2.1354433549e+02 2.7354953507e+02 1.6914150311e+02 0.0000e+00 0.0000e+00
      -24  2    5    5    0    0 -3.6662455275e+01 +4.5435886940e+01 +1.1662726450e+02 1.5399205593e+02 8.1872333633e+01 0.0000e+00 0.0000e+00
        5  1    3    3  501    0 +7.0634460239e+01 +6.3452878171e+01 +1.4833492974e+02 1.7618409719e+02 4.7000000000e+00 0.0000e+00 -1.0000e+00
      -13  1    4    4    0    0 -2.8146221066e+01 -8.5434083473e+00 +8.6194303620e-02 2.9414401506e+01 0.0000000000e+00 0.0000e+00 1.0000e+00
       14  1    4    4    0    0 -8.7893378455e+00 +1.7215202343e+00 +1.2035305589e+02 1.2068584902e+02 0.0000000000e+00 0.0000e+00 -1.0000e+00
       -5  1    5    5    0  502 +2.2721746057e+01 -6.6050771581e+01 +9.6917070991e+01 1.1955747915e+02 4.7000000000e+00 0.0000e+00 1.0000e+00
       13  1    6    6    0    0 -2.8672910794e+01 -1.8268254628e+01 +2.5405416061e+01 4.2441726000e+01 0.0000000000e+00 0.0000e+00 -1.0000e+00
      -14  1    6    6    0    0 -7.9895444810e+00 +6.3704141568e+01 +9.1221848439e+01 1.1155032993e+02 0.0000000000e+00 0.0000e+00 1.0000e+00
       21  1    1    2  504  503 -1.9758192110e+01 -3.6016105417e+01 +2.4760342692e+01 4.7964784739e+01 0.0000000000e+00 0.0000e+00 1.0000e+00
<mgrwt>
<rscale>  3 0.17792027E+03</rscale>
<asrwt>0</asrwt>
<pdfrwt beam="1">  1       21 0.88836730E-01 0.17882411E+03</pdfrwt>
<pdfrwt beam="2">  1       21 0.10824601E-01 0.17882411E+03</pdfrwt>
<totfact> 0.76809264E+04</totfact>
</mgrwt>
</event>
<event>
12      2 +1.4674046e+01 2.94315700e+02 7.54677100e-03 1.10582900e-01
       21 -1    0    0  501  503 +0.0000000000e+00 +0.0000000000e+00 +3.5496083718e+02 3.5496083718e+02 0.0000000000e+00 0.0000e+00 1.0000e+00
       -2 -1    0    0    0  501 -0.0000000000e+00 -0.0000000000e+00 -2.0874164150e+02 2.0874164150e+02 0.0000000000e+00 0.0000e+00 -1.0000e+00
        6  2    1    2  502    0 +1.6882534705e+01 -5.1481571830e+01 +7.2344685509e+01 1.9520834317e+02 1.7302361545e+02 0.0000e+00 0.0000e+00
       24  2    3    3    0    0 +4.2119246561e+01 -4.6830967208e+01 -1.3895093371e+01 1.0510890249e+02 8.2991790814e+01 0.0000e+00 0.0000e+00
      -24  2    1    2    0    0 -1.4650761028e+02 +4.5814588127e+01 +7.8139599680e+01 1.8758937202e+02 7.4300195825e+01 0.0000e+00 0.0000e+00
        5  1    3    3  502    0 -2.5236711855e+01 -4.6506046227e+00 +8.6239778880e+01 9.0099440675e+01 4.7000000000e+00 0.0000e+00 -1.0000e+00
      -13  1    4    4    0    0 +9.2013925305e+00 -3.8198047547e+01 +3.0094940699e+01 4.9492038921e+01 0.0000000000e+00 0.0000e+00 1.0000e+00
       14  1    4    4    0    0 +3.2917854030e+01 -8.6329196603e+00 -4.3990034070e+01 5.5616863569e+01 0.0000000000e+00 0.0000e+00 -1.0000e+00
       -5  1    1    2    0  503 +1.2184570040e+02 +3.8375294582e+01 +3.1667013469e+01 1.3169634650e+02 4.7000000000e+00 0.0000e+00 1.0000e+00
       13  1    5    5    0    0 -1.0485244562e+02 +2.8714230299e+01 +8.9878664029e+01 1.4105572169e+02 0.0000000000e+00 0.0000e+00 -1.0000e+00
      -14  1    5    5    0    0 -4.1655164661e+01 +1.7100357828e+01 -1.1739064349e+01 4.6533650325e+01 0.0000000000e+00 0.0000e+00 1.0000e+00
       -2  1    1    2    0  502 +7.7793751794e+00 -3.2708310878e+01 -3.5932102978e+01 4.9208416995e+01 0.0000000000e+00 0.0000e+00 -1.0000e+00
<mgrwt>
<rscale>  3 0.26219908E+03</rscale>
<asrwt>0</asrwt>
<pdfrwt beam="1">  1       21 0.54609360E-01 0.29431568E+03</pdfrwt>
<pdfrwt beam="2">  1       -2 0.32114099E-01 0.29431568E+03</pdfrwt>
<totfact> 0.22395079E+03</totfact>
</mgrwt>
</event>
<event>
14      3 +1.4674046e+01 2.15022100e+02 7.54677100e-03 1.14001700e-01
       21 -1    0    0  505  502 +0.0000000000e+00 +0.0000000000e+00 +4.0270664396e+02 4.0270664396e+02 0.0000000000e+00 0.0000e+00 1.0000e+00
       21 -1    0    0  501  503 -0.0000000000e+00 -0.0000000000e+00 -8.2067671402e+02 8.2067671402e+02 0.0000000000e+00 0.0000e+00 1.0000e+00
        6  2    1    2  501    0 +5.3751696290e+01 -7.9625046677e+01 -7.0506602828e+02 7.3303749721e+02 1.7605815847e+02 0.0000e+00 0.0000e+00
       24  2    3    3    0    0 +1.1707171060e+01 -9.1251897735e+01 -6.5581420352e+02 6.6707722121e+02 8.0223330931e+01 0.0000e+00 0.0000e+00
       -6  2    1    2    0  502 -4.7743739534e+01 +1.6822815674e+02 +8.8469777460e+01 2.7277066379e+02 1.8972811102e+02 0.0000e+00 0.0000e+00
      -24  2    5    5    0    0 +1.7528648385e+01 +4.9748443395e+01 +6.9744775169e+01 1.1846625941e+02 7.9923462263e+01 0.0000e+00 0.0000e+00
        5  1    3    3  501    0 +4.2044525230e+01 +1.1626851058e+01 -4.9251824764e+01 6.5960276000e+01 4.7000000000e+00 0.0000e+00 -1.0000e+00
      -13  1    4    4    0    0 +2.3408001900e+00 -1.0230852640e+02 -4.8664393145e+02 4.9728747213e+02 0.0000000000e+00 0.0000e+00 1.0000e+00
       14  1    4    4    0    0 +9.3663708697e+00 +1.1056628668e+01 -1.6917027207e+02 1.6978974908e+02 0.0000000000e+00 0.0000e+00 -1.0000e+00
       -5  1    5    5    0  504 -2.3410512772e+01 +6.3602183771e+01 +4.3842146244e+01 8.0854892715e+01 4.7000000000e+00 0.0000e+00 1.0000e+00
       13  1    6    6    0    0 -1.9547433876e+01 -5.5434903983e+00 -2.2111722019e+00 2.0438242083e+01 0.0000000000e+00 0.0000e+00 -1.0000e+00
      -14  1    6    6    0    0 +3.7076082261e+01 +5.5291933793e+01 +7.1955947371e+01 9.8028017324e+01 0.0000000000e+00 0.0000e+00 1.0000e+00
       21  1    5    5  504  502 -4.1861875146e+01 +5.4877529578e+01 -2.5117143954e+01 7.3449511664e+01 0.0000000000e+00 0.0000e+00 1.0000e+00
       21  1    1    2  505  503 -6.0079567562e+00 -8.8603110066e+01 +1.9862618077e+02 2.1757519699e+02 0.0000000000e+00 0.0000e+00 1.0000e+00
<mgrwt>
<rscale>  4 0.21196765E+03</rscale>
<asrwt>0</asrwt>
<pdfrwt beam="1">  1       21 0.61954869E-01 0.21502212E+03</pdfrwt>
<pdfrwt beam="2">  1       21 0.12625795E+00 0.21502212E+03</pdfrwt>
<totfact> 0.11007494E+03</totfact>
</mgrwt>
</event>
<event>
13      3 +1.4674046e+01 3.77408600e+02 7.54677100e-03 1.07544800e-01
        2 -1    0    0  503    0 +0.0000000000e+00 +0.0000000000e+00 +2.5716224104e+03 2.5716224104e+03 0.0000000000e+00 0.0000e+00 1.0000e+00
        1 -1    0    0  501    0 -0.0000000000e+00 -0.0000000000e+00 -7.3845326975e+02 7.3845326975e+02 0.0000000000e+00 0.0000e+00 1.0000e+00
        6  2    1    2  501    0 -5.4433624251e+01 +8.7182232265e+01 -7.1565502093e+01 2.1311970739e+02 1.7243731475e+02 0.0000e+00 0.0000e+00
       24  2    3    3    0    0 -3.2953239405e-02 +7.7585807358e+01 +1.2694207686e+01 1.1225686453e+02 8.0130531864e+01 0.0000e+00 0.0000e+00
      -24  2    1    2    0    0 -4.0839820038e+01 +1.0245249457e+02 +3.2973836991e+02 3.5667113785e+02 7.9514171318e+01 0.0000e+00 0.0000e+00
        5  1    3    3  501    0 -5.4400671011e+01 +9.5964249069e+00 -8.4259709779e+01 1.0086284286e+02 4.7000000000e+00 0.0000e+00 -1.0000e+00
      -13  1    4    4    0    0 -3.8288492965e+01 +5.3381923248e+01 +1.3093960846e+01 6.6985746497e+01 0.0000000000e+00 0.0000e+00 1.0000e+00
       14  1    4    4    0    0 +3.8255539725e+01 +2.4203884110e+01 -3.9975315991e-01 4.5271118036e+01 0.0000000000e+00 0.0000e+00 -1.0000e+00
       -5  1    1    2    0  502 +6.7351145366e+01 -1.9333402847e+02 +1.4962302066e+02 2.5362050717e+02 4.7000000000e+00 0.0000e+00 1.0000e+00
       13  1    5    5    0    0 +1.9240843479e+01 +1.4993056384e+01 +1.0977625540e+02 1.1245367067e+02 0.0000000000e+00 0.0000e+00 -1.0000e+00
      -14  1    5    5    0    0 -6.0080663517e+01 +8.7459438187e+01 +2.1996211451e+02 2.4421746719e+02 0.0000000000e+00 0.0000e+00 1.0000e+00
        2  1    1    2  502    0 +3.9894020413e+01 +2.8979462511e+01 +1.9553391523e+03 1.9559607722e+03 0.0000000000e+00 0.0000e+00 1.0000e+00
        1  1    1    2  503    0 -1.1971721490e+01 -2.5280160880e+01 -5.2996590006e+02 5.3070355555e+02 0.0000000000e+00 0.0000e+00 1.0000e+00
<mgrwt>
<rscale>  4 0.32043728E+03</rscale>
<asrwt>0</asrwt>
<pdfrwt beam="1">  1        2 0.39563421E+00 0.37740864E+03</pdfrwt>
<pdfrwt beam="2">  1        1 0.11360820E+00 0.37740864E+03</pdfrwt>
<totfact> 0.12451383E+01</totfact>
</mgrwt>
</event>
<event>
13      2 +1.4674046e+01 1.99737700e+02 7.54677100e-03 1.15003400e-01
       21 -1    0    0  504  502 +0.0000000000e+00 +0.0000000000e+00 +1.0562150025e+03 1.0562150025e+03 0.0000000000e+00 0.0000e+00 -1.0000e+00
       21 -1    0    0  502  503 -0.0000000000e+00 -0.0000000000e+00 -2.2080061951e+02 2.2080061951e+02 0.0000000000e+00 0.0000e+00 1.0000e+00
       -6  2    1    2    0  503 -7.8743999160e+01 -5.0907978364e+01 -1.4303129311e+02 2.4314553759e+02 1.7282812843e+02 0.0000e+00 0.0000e+00
      -24  2    3    3    0    0 +2.3919066379e+01 -3.5267563517e+01 -5.3795543553e+01 1.0614394416e+02 8.0973165946e+01 0.0000e+00 0.0000e+00
        6  2    1    2  501    0 +1.3239181152e+02 +1.0324609794e+02 +5.7554349740e+02 6.2405606302e+02 1.7322905038e+02 0.0000e+00 0.0000e+00
       24  2    5    5    0    0 +4.0265999714e+01 +1.1697223410e+02 +3.7725233326e+02 4.0492813740e+02 7.9646840610e+01 0.0000e+00 0.0000e+00
        5  1    5    5  501    0 +9.2125811801e+01 -1.3726136159e+01 +1.9829116414e+02 2.1912792562e+02 4.7000000000e+00 0.0000e+00 -1.0000e+00
      -13  1    6    6    0    0 +2.5442678958e+01 +4.6457913560e+01 +6.1997838294e+01 8.1543850768e+01 0.0000000000e+00 0.0000e+00 1.0000e+00
       14  1    6    6    0    0 +1.4823320755e+01 +7.0514320537e+01 +3.1525449497e+02 3.2338428663e+02 0.0000000000e+00 0.0000e+00 -1.0000e+00
       -5  1    3    3    0  503 -1.0266306554e+02 -1.5640414847e+01 -8.9235749556e+01 1.3700159343e+02 4.7000000000e+00 0.0000e+00 1.0000e+00
       13  1    4    4    0    0 +3.8845577690e-01 +1.9779946404e+01 +6.8419736413e+00 2.0933460797e+01 0.0000000000e+00 0.0000e+00 -1.0000e+00
      -14  1    4    4    0    0 +2.3530610602e+01 -5.5047509921e+01 -6.0637517194e+01 8.5210483365e+01 0.0000000000e+00 0.0000e+00 1.0000e+00
       21  1    1    2  504  501 -5.3647812356e+01 -5.2338119574e+01 +4.0290217866e+02 4.0981402135e+02 0.0000000000e+00 0.0000e+00 -1.0000e+00
<mgrwt>
<rscale>  3 0.19965073E+03</rscale>
<asrwt>0</asrwt>
<pdfrwt beam="1">  1       21 0.16249461E+00 0.19973769E+03</pdfrwt>
<pdfrwt beam="2">  1       21 0.33969327E-01 0.19973769E+03</pdfrwt>
<totfact> 0.20016066E+03</totfact>
</mgrwt>
</event>
<event>
12      1 +1.4674046e+01 3.11742500e+02 7.54677100e-03 1.07997400e-01
       21 -1    0    0  503  502 +0.0000000000e+00 +0.0000000000e+00 +1.9492966045e+03 1.9492966045e+03 0.0000000000e+00 0.0000e+00 1.0000e+00
       21 -1    0    0  501  503 -0.0000000000e+00 -0.0000000000e+00 -1.0103415940e+02 1.0103415940e+02 0.0000000000e+00 0.0000e+00 -1.0000e+00
        6  2    1    2  501    0 -2.2571684993e+02 -1.1954556461e+02 +1.9294325221e+02 3.6662037425e+02 1.7872929778e+02 0.0000e+00 0.0000e+00
       24  2    3    3    0    0 -1.0983475127e+02 +2.2799859134e+01 +6.8472027750e+01 1.4479599288e+02 6.0777913825e+01 0.0000e+00 0.0000e+00
       -6  2    1    2    0  502 +2.2571684993e+02 +1.1954556461e+02 +1.6553191929e+03 1.6837103897e+03 1.7192965860e+02 0.0000e+00 0.0000e+00
      -24  2    5    5    0    0 +1.5128198824e+02 +7.8838842363e+00 +6.9781682651e+02 7.1683824137e+02 6.2931274665e+01 0.0000e+00 0.0000e+00
        5  1    3    3  501    0 -1.1588209866e+02 -1.4234542374e+02 +1.2447122446e+02 2.2182438137e+02 4.7000000000e+00 0.0000e+00 -1.0000e+00
      -13  1    4    4    0    0 -3.7046952833e+01 +3.0239603026e+01 +5.0303073609e+01 6.9406840585e+01 0.0000000000e+00 0.0000e+00 1.0000e+00
       14  1    4    4    0    0 -7.2787798432e+01 -7.4397438925e+00 +1.8168954141e+01 7.5389152299e+01 0.0000000000e+00 0.0000e+00 -1.0000e+00
       -5  1    5    5    0  502 +7.4434861685e+01 +1.1166168037e+02 +9.5750236641e+02 9.6687214831e+02 4.7000000000e+00 0.0000e+00 1.0000e+00
       13  1    6    6    0    0 +1.0607313516e+02 -1.6413435603e+01 +5.4969664342e+02 5.6007795052e+02 0.0000000000e+00 0.0000e+00 -1.0000e+00
      -14  1    6    6    0    0 +4.5208853086e+01 +2.4297319839e+01 +1.4812018309e+02 1.5676029085e+02 0.0000000000e+00 0.0000e+00 1.0000e+00
<mgrwt>
<rscale>  2 0.31077604E+03</rscale>
<asrwt>0</asrwt>
<pdfrwt beam="1">  1       21 0.29989176E+00 0.31174252E+03</pdfrwt>
<pdfrwt beam="2">  1       21 0.15543718E-01 0.31174252E+03</pdfrwt>
<totfact> 0.11112442E+03</totfact>
</mgrwt>
</event>
<event>
12      1 +1.4674046e+01 2.29327700e+02 7.54677100e-03 1.12729400e-01
       21 -1    0    0  503  502 +0.0000000000e+00 +0.0000000000e+00 +3.9873609701e+02 3.9873609701e+02 0.0000000000e+00 0.0000e+00 1.0000e+00
       21 -1    0    0  501  503 -0.0000000000e+00 -0.0000000000e+00 -5.9117119382e+02 5.9117119382e+02 0.0000000000e+00 0.0000e+00 1.0000e+00
        6  2    1    2  501    0 +1.3213611803e+01 -1.4902598550e+02 -5.3270752789e+02 5.7957022222e+02 1.7245575758e+02 0.0000e+00 0.0000e+00
       24  2    3    3    0    0 -2.2623873096e+01 -7.6884333062e+01 -1.4971290933e+02 1.8816798514e+02 8.1056740063e+01 0.0000e+00 0.0000e+00
       -6  2    1    2    0  502 -1.3213611803e+01 +1.4902598550e+02 +3.4027243107e+02 4.1033706862e+02 1.7380402367e+02 0.0000e+00 0.0000e+00
      -24  2    5    5    0    0 -4.9490986423e+01 +1.3396115104e+02 +1.7165937924e+02 2.3714512771e+02 7.9849366872e+01 0.0000e+00 0.0000e+00
        5  1    3    3  501    0 +3.5837484900e+01 -7.2141652435e+01 -3.8299461856e+02 3.9140223707e+02 4.7000000000e+00 0.0000e+00 -1.0000e+00
      -13  1    4    4    0    0 +1.6124432433e+01 -2.8624164181e+01 -1.0959223665e+02 1.1441065698e+02 0.0000000000e+00 0.0000e+00 1.0000e+00
       14  1    4    4    0    0 -3.8748305530e+01 -4.8260168881e+01 -4.0120672675e+01 7.3757328163e+01 0.0000000000e+00 0.0000e+00 -1.0000e+00
       -5  1    5    5    0  502 +3.6277374620e+01 +1.5064834454e+01 +1.6861305184e+02 1.7319194091e+02 4.7000000000e+00 0.0000e+00 1.0000e+00
       13  1    6    6    0    0 -4.4953721319e+01 +1.9656507343e+01 +5.6398850118e+01 7.4753231609e+01 0.0000000000e+00 0.0000e+00 -1.0000e+00
      -14  1    6    6    0    0 -4.5372651042e+00 +1.1430464370e+02 +1.1526052912e+02 1.6239189610e+02 0.0000000000e+00 0.0000e+00 1.0000e+00
<mgrwt>
<rscale>  2 0.22907221E+03</rscale>
<asrwt>0</asrwt>
<pdfrwt beam="1">  1       21 0.61344015E-01 0.22932768E+03</pdfrwt>
<pdfrwt beam="2">  1       21 0.90949414E-01 0.22932768E+03</pdfrwt>
<totfact> 0.24573871E+03</totfact>
</mgrwt>
</event>
<event>
12      1 +1.4674046e+01 1.83953000e+02 7.54677100e-03 1.16484600e-01
       21 -1    0    0  501  502 +0.0000000000e+00 +0.0000000000e+00 +1.1064336264e+03 1.1064336264e+03 0.0000000000e+00 0.0000e+00 -1.0000e+00
       21 -1    0    0  502  503 -0.0000000000e+00 -0.0000000000e+00 -3.8848637252e+02 3.8848637252e+02 0.0000000000e+00 0.0000e+00 -1.0000e+00
       -6  2    1    2    0  503 +5.4530593333e+01 -2.9108870404e+01 -3.5928893086e+02 4.0209040706e+02 1.6960910255e+02 0.0000e+00 0.0000e+00
      -24  2    3    3    0    0 +2.0031539797e+01 +4.0907378226e+01 -1.3245031195e+02 1.6215227171e+02 8.1704332235e+01 0.0000e+00 0.0000e+00
        6  2    1    2  501    0 -5.4530593333e+01 +2.9108870404e+01 +1.0772361848e+03 1.0928295919e+03 1.7325647806e+02 0.0000e+00 0.0000e+00
       24  2    5    5    0    0 +1.0095057738e+01 -1.5354541006e+01 +2.8076851065e+02 2.9249446481e+02 7.9902335687e+01 0.0000e+00 0.0000e+00
        5  1    5    5  501    0 -6.4625651071e+01 +4.4463411411e+01 +7.9646767412e+02 8.0033512709e+02 4.7000000000e+00 0.0000e+00 -1.0000e+00
      -13  1    6    6    0    0 -2.5604264562e+01 -3.2941190854e+01 +1.5930022295e+02 1.6467319591e+02 0.0000000000e+00 0.0000e+00 1.0000e+00
       14  1    6    6    0    0 +3.5699322300e+01 +1.7586649847e+01 +1.2146828771e+02 1.2782126890e+02 0.0000000000e+00 0.0000e+00 -1.0000e+00
       -5  1    3    3    0  503 +3.4499053536e+01 -7.0016248630e+01 -2.2683861891e+02 2.3993813535e+02 4.7000000000e+00 0.0000e+00 1.0000e+00
       13  1    4    4    0    0 +3.8138483994e+01 -4.0991739904e+00 -8.9443004608e+01 9.7321109026e+01 0.0000000000e+00 0.0000e+00 -1.0000e+00
      -14  1    4    4    0    0 -1.8106944197e+01 +4.5006552216e+01 -4.3007307345e+01 6.4831162689e+01 0.0000000000e+00 0.0000e+00 1.0000e+00
<mgrwt>
<rscale>  2 0.18308919E+03</rscale>
<asrwt>0</asrwt>
<pdfrwt beam="1">  1       21 0.17022056E+00 0.18395304E+03</pdfrwt>
<pdfrwt beam="2">  1       21 0.59767135E-01 0.18395304E+03</pdfrwt>
<totfact> 0.56130096E+02</totfact>
</mgrwt>
</event>
<event>
13      2 +1.4674046e+01 2.46840900e+02 7.54677100e-03 1.11533300e-01
       21 -1    0    0  503  502 +0.0000000000e+00 +0.0000000000e+00 +5.7831691257e+02 5.7831691257e+02 0.0000000000e+00 0.0000e+00 -1.0000e+00
       21 -1    0    0  504  503 -0.0000000000e+00 -0.0000000000e+00 -1.3773042067e+02 1.3773042067e+02 0.0000000000e+00 0.0000e+00 1.0000e+00
        6  2    1    2  501    0 +8.7319754695e+01 +1.3901343602e+02 +1.6923424513e+02 2.9247293459e+02 1.7306274236e+02 0.0000e+00 0.0000e+00
       24  2    3    3    0    0 +2.6060395533e+01 +6.5886921382e+01 +1.6569031543e+02 1.9689654804e+02 7.9339393629e+01 0.0000e+00 0.0000e+00
       -6  2    1    2    0  502 -1.3614797623e+02 -1.2983272958e+02 +2.7291000145e+02 3.7386617811e+02 1.7292553640e+02 0.0000e+00 0.0000e+00
      -24  2    5    5    0    0 -2.5968481450e+01 -5.6337673245e+01 +1.9004300867e+02 2.1756495333e+02 8.5847937171e+01 0.0000e+00 0.0000e+00
        5  1    3    3  501    0 +6.1259359162e+01 +7.3126514640e+01 +3.5439297027e+00 9.5576386550e+01 4.7000000000e+00 0.0000e+00 -1.0000e+00
      -13  1    4    4    0    0 +1.4652844587e+01 -1.5178070725e+01 +5.7335092108e+01 6.1093309556e+01 0.0000000000e+00 0.0000e+00 1.0000e+00
       14  1    4    4    0    0 +1.1407550946e+01 +8.1064992107e+01 +1.0835522332e+02 1.3580323849e+02 0.0000000000e+00 0.0000e+00 -1.0000e+00
       -5  1    5    5    0  502 -1.1017949478e+02 -7.3495056334e+01 +8.2866992782e+01 1.5630122478e+02 4.7000000000e+00 0.0000e+00 1.0000e+00
       13  1    6    6    0    0 -3.3207224799e+01 -4.5645548443e+01 +1.9554534590e+02 2.0352940371e+02 0.0000000000e+00 0.0000e+00 -1.0000e+00
      -14  1    6    6    0    0 +7.2387433486e+00 -1.0692124802e+01 -5.5023372303e+00 1.4035549616e+01 0.0000000000e+00 0.0000e+00 1.0000e+00
       21  1    1    2  504  501 +4.8828221534e+01 -9.1807064423e+00 -1.5577546882e+00 4.9708220534e+01 0.0000000000e+00 0.0000e+00 -1.0000e+00
<mgrwt>
<rscale>  3 0.24681683E+03</rscale>
<asrwt>0</asrwt>
<pdfrwt beam="1">  1       21 0.88971832E-01 0.24684088E+03</pdfrwt>
<pdfrwt beam="2">  1       21 0.21189296E-01 0.24684088E+03</pdfrwt>
<totfact> 0.21690930E+04</totfact>
</mgrwt>
</event>
<event>
12      1 +1.4674046e+01 4.21942700e+02 7.54677100e-03 1.03665100e-01
       21 -1    0    0  503  502 +0.0000000000e+00 +0.0000000000e+00 +2.0357587400e+03 2.0357587400e+03 0.0000000000e+00 0.0000e+00 -1.0000e+00
       21 -1    0    0  501  503 -0.0000000000e+00 -0.0000000000e+00 -2.1654838369e+02 2.1654838369e+02 0.0000000000e+00 0.0000e+00 1.0000e+00
        6  2    1    2  501    0 -3.5201362583e+02 +1.4815390028e+02 +3.9404580086e+01 4.2377864162e+02 1.7936678964e+02 0.0000e+00 0.0000e+00
       24  2    3    3    0    0 -2.6361912634e+02 +5.2641277315e+01 -1.7678030730e+01 2.8159297728e+02 8.1950864757e+01 0.0000e+00 0.0000e+00
       -6  2    1    2    0  502 +3.5201362583e+02 -1.4815390028e+02 +1.7798057763e+03 1.8285284821e+03 1.7304518997e+02 0.0000e+00 0.0000e+00
      -24  2    5    5    0    0 +3.6395958964e+02 -1.2551307742e+02 +1.6576894217e+03 1.7036693336e+03 7.9591859035e+01 0.0000e+00 0.0000e+00
        5  1    3    3  501    0 -8.8394499486e+01 +9.5512622963e+01 +5.7082610817e+01 1.4218566433e+02 4.7000000000e+00 0.0000e+00 -1.0000e+00
      -13  1    4    4    0    0 -6.4215899265e+01 +1.3643633553e+01 -4.0496302506e+01 7.7134823339e+01 0.0000000000e+00 0.0000e+00 1.0000e+00
       14  1    4    4    0    0 -1.9940322708e+02 +3.8997643763e+01 +2.2818271775e+01 2.0445815394e+02 0.0000000000e+00 0.0000e+00 -1.0000e+00
       -5  1    5    5    0  502 -1.1945963814e+01 -2.2640822859e+01 +1.2211635456e+02 1.2485914849e+02 4.7000000000e+00 0.0000e+00 1.0000e+00
       13  1    6    6    0    0 +9.8976029043e+01 -8.7705447921e+00 +3.2332857548e+02 3.3825219069e+02 0.0000000000e+00 0.0000e+00 -1.0000e+00
      -14  1    6    6    0    0 +2.6498356060e+02 -1.1674253263e+02 +1.3343608462e+03 1.3654171430e+03 0.0000000000e+00 0.0000e+00 1.0000e+00
<mgrwt>
<rscale>  2 0.42127904E+03</rscale>
<asrwt>0</asrwt>
<pdfrwt beam="1">  1       21 0.31319364E+00 0.42194267E+03</pdfrwt>
<pdfrwt beam="2">  1       21 0.33315137E-01 0.42194267E+03</pdfrwt>
<totfact> 0.19733839E+02</totfact>
</mgrwt>
</event>
<event>
10      1 +1.4674046e+01 2.48345200e+02 7.54677100e-03 1.13120800e-01
       21 -1    0    0  503  502 +0.0000000000e+00 +0.0000000000e+00 +1.1911391139e+03 1.1911391139e+03 0.0000000000e+00 0.0000e+00 1.0000e+00
       21 -1    0    0  501  503 -0.0000000000e+00 -0.0000000000e+00 -5.8566125021e+01 5.8566125021e+01 0.0000000000e+00 0.0000e+00 -1.0000e+00
       24  2    1    2    0    0 +1.0379429457e+01 +1.2095669979e+02 +9.1756130883e+01 1.7246299338e+02 8.1154425321e+01 0.0000e+00 0.0000e+00
      -24  2    1    2    0    0 +3.7030790305e+01 -3.9281149597e+00 +7.0053028638e+02 7.0605208155e+02 7.9875842421e+01 0.0000e+00 0.0000e+00
        5  1    1    2  501    0 +1.4698019604e+01 -5.9782032052e+00 +1.6957427730e+01 2.3694198637e+01 4.7000000000e+00 0.0000e+00 -1.0000e+00
      -13  1    3    3    0    0 +8.0643264593e+00 -7.4046582019e+00 +2.6020548458e+01 2.8229971066e+01 0.0000000000e+00 0.0000e+00 1.0000e+00
       14  1    3    3    0    0 +2.3151029980e+00 +1.2836135800e+02 +6.5735582425e+01 1.4423302231e+02 0.0000000000e+00 0.0000e+00 -1.0000e+00
       -5  1    1    2    0  502 -6.2108239366e+01 -1.1105038163e+02 +3.2332914390e+02 3.4749596537e+02 4.7000000000e+00 0.0000e+00 1.0000e+00
       13  1    4    4    0    0 +3.6755694233e+01 -3.3825687925e+01 +2.7700755208e+02 2.8147529577e+02 0.0000000000e+00 0.0000e+00 -1.0000e+00
      -14  1    4    4    0    0 +2.7509607149e-01 +2.9897572965e+01 +4.2352273431e+02 4.2457678578e+02 0.0000000000e+00 0.0000e+00 1.0000e+00
<mgrwt>
<rscale>  2 0.22362604E+03</rscale>
<asrwt>0</asrwt>
<pdfrwt beam="1">  1       21 0.18325215E+00 0.24834523E+03</pdfrwt>
<pdfrwt beam="2">  1       21 0.90101740E-02 0.24834523E+03</pdfrwt>
<totfact> 0.16233969E+04</totfact>
</mgrwt>
</event>
<event>
13      2 +1.4674046e+01 1.94262200e+02 7.54677100e-03 1.15490500e-01
       21 -1    0    0  501  502 +0.0000000000e+00 +0.0000000000e+00 +1.0295005013e+02 1.0295005013e+02 0.0000000000e+00 0.0000e+00 1.0000e+00
       21 -1    0    0  504  503 -0.0000000000e+00 -0.0000000000e+00 -6.4178193114e+02 6.4178193114e+02 0.0000000000e+00 0.0000e+00 1.0000e+00
        6  2    1    2  501    0 -7.0112136456e+01 +2.3824507499e+01 -6.5794067839e+01 1.9839020730e+02 1.7189094262e+02 0.0000e+00 0.0000e+00
       24  2    3    3    0    0 -1.1009352915e+02 +1.7430293612e+00 -2.3548729436e+01 1.3599740279e+02 7.6270096337e+01 0.0000e+00 0.0000e+00
       -6  2    1    2    0  503 +1.1834847525e+02 -5.0854293423e+01 -3.4547350076e+02 4.0730937663e+02 1.7307936853e+02 0.0000e+00 0.0000e+00
      -24  2    5    5    0    0 +5.9767057779e+01 +2.5465461414e+01 -1.0421845866e+02 1.4753529635e+02 8.1759315198e+01 0.0000e+00 0.0000e+00
        5  1    3    3  501    0 +3.9981392690e+01 +2.2081478138e+01 -4.2245338403e+01 6.2392804513e+01 4.7000000000e+00 0.0000e+00 -1.0000e+00
      -13  1    4    4    0    0 -3.4614867736e+01 +2.5901464329e+01 +1.7627256780e+01 4.6688275877e+01 0.0000000000e+00 0.0000e+00 1.0000e+00
       14  1    4    4    0    0 -7.5478661410e+01 -2.4158434968e+01 -4.1175986216e+01 8.9309126909e+01 0.0000000000e+00 0.0000e+00 -1.0000e+00
       -5  1    5    5    0  503 +5.8581417473e+01 -7.6319754837e+01 -2.4125504209e+02 2.5977408028e+02 4.7000000000e+00 0.0000e+00 1.0000e+00
       13  1    6    6    0    0 -1.0035330263e+01 +1.8460842204e+01 -6.2448403040e+01 6.5888645385e+01 0.0000000000e+00 0.0000e+00 -1.0000e+00
      -14  1    6    6    0    0 +6.9802388043e+01 +7.0046192104e+00 -4.1770055624e+01 8.1646650964e+01 0.0000000000e+00 0.0000e+00 1.0000e+00
       21  1    1    2  504  502 -4.8236338797e+01 +2.7029785923e+01 -1.2756431242e+02 1.3903239734e+02 0.0000000000e+00 0.0000e+00 1.0000e+00
<mgrwt>
<rscale>  3 0.19399711E+03</rscale>
<asrwt>0</asrwt>
<pdfrwt beam="1">  1       21 0.15838469E-01 0.19426217E+03</pdfrwt>
<pdfrwt beam="2">  1       21 0.98735681E-01 0.19426217E+03</pdfrwt>
<totfact> 0.30026615E+04</totfact>
</mgrwt>
</event>
<event>
14      3 +1.4674046e+01 1.92724000e+02 7.54677100e-03 1.15618300e-01
       21 -1    0    0  504  502 +0.0000000000e+00 +0.0000000000e+00 +7.8869387067e+01 7.8869387067e+01 0.0000000000e+00 0.0000e+00 -1.0000e+00
       21 -1    0    0  505  503 -0.0000000000e+00 -0.0000000000e+00 -1.8692713399e+03 1.8692713399e+03 0.0000000000e+00 0.0000e+00 -1.0000e+00
       -6  2    1    2    0  502 -9.1631932977e+01 -9.5497399917e+00 -7.2238988089e+01 2.0761350149e+02 1.7145636742e+02 0.0000e+00 0.0000e+00
      -24  2    3    3    0    0 -9.8540939528e+01 -5.9346524607e+01 -7.2190250117e+01 1.5712046727e+02 7.9013177875e+01 0.0000e+00 0.0000e+00
        6  2    1    2  505    0 +5.6610798452e+01 -1.7769110479e+01 -7.6738498960e+02 7.8871234984e+02 1.7224089161e+02 0.0000e+00 0.0000e+00
       24  2    5    5    0    0 -3.9361011226e+00 -6.1174231138e+01 -4.6651798842e+02 4.7737904036e+02 8.0584956449e+01 0.0000e+00 0.0000e+00
        5  1    5    5  501    0 +3.1531273747e+01 +3.7116472059e+01 -1.5751446119e+02 1.6493862254e+02 4.7000000000e+00 0.0000e+00 -1.0000e+00
      -13  1    6    6    0    0 -2.6280449697e+00 -2.7759561185e+01 -3.5861925008e+01 4.5426616898e+01 0.0000000000e+00 0.0000e+00 1.0000e+00
       14  1    6    6    0    0 -1.3080561528e+00 -3.3414669953e+01 -4.3065606341e+02 4.3195242346e+02 0.0000000000e+00 0.0000e+00 -1.0000e+00
       -5  1    3    3    0  502 +6.9090065507e+00 +4.9796784615e+01 -4.8737971573e-02 5.0493034222e+01 4.7000000000e+00 0.0000e+00 1.0000e+00
       13  1    4    4    0    0 +1.1707648114e+01 -1.7117251375e+01 -5.2046080752e+00 2.1381236265e+01 0.0000000000e+00 0.0000e+00 -1.0000e+00
      -14  1    4    4    0    0 -1.1024858764e+02 -4.2229273231e+01 -6.6985642042e+01 1.3573923101e+02 0.0000000000e+00 0.0000e+00 1.0000e+00
       21  1    1    2  504  503 +3.5021134525e+01 +2.7318850470e+01 -9.5077797513e+02 9.5181487561e+02 0.0000000000e+00 0.0000e+00 -1.0000e+00
       21  1    5    5  505  501 +2.9015625828e+01 +6.2886486007e+00 -1.4335253999e+02 1.4639468695e+02 0.0000000000e+00 0.0000e+00 1.0000e+00
<mgrwt>
<rscale>  4 0.19254853E+03</rscale>
<asrwt>0</asrwt>
<pdfrwt beam="1">  1       21 0.12133753E-01 0.19272397E+03</pdfrwt>
<pdfrwt beam="2">  1       21 0.28758018E+00 0.19272397E+03</pdfrwt>
<totfact> 0.23149381E+03</totfact>
</mgrwt>
</event>
<event>
13      2 +1.4674046e+01 2.06040500e+02 7.54677100e-03 1.14532100e-01
       21 -1    0    0  504  502 +0.0000000000e+00 +0.0000000000e+00 +1.5081380150e+02 1.5081380150e+02 0.0000000000e+00 0.0000e+00 -1.0000e+00
       21 -1    0    0  502  503 -0.0000000000e+00 -0.0000000000e+00 -6.3875125203e+02 6.3875125203e+02 0.0000000000e+00 0.0000e+00 -1.0000e+00
       -6  2    1    2    0  503 +2.0167688418e+01 +1.0174988398e+02 -2.6140791823e+02 3.2950179525e+02 1.7169029911e+02 0.0000e+00 0.0000e+00
      -24  2    3    3    0    0 +4.3712317296e+01 +1.0113639815e+02 -1.2398137961e+02 1.8999240692e+02 9.2662799882e+01 0.0000e+00 0.0000e+00
        6  2    1    2  501    0 +3.0509900518e+00 -1.1462400556e+02 -3.0913369993e+02 3.7329748999e+02 1.7504113920e+02 0.0000e+00 0.0000e+00
       24  2    5    5    0    0 -2.5751281687e+01 -4.4976858840e+01 -4.6769781897e+01 1.0028245123e+02 7.1993827425e+01 0.0000e+00 0.0000e+00
        5  1    5    5  501    0 +2.8802271738e+01 -6.9647146715e+01 -2.6236391803e+02 2.7301503876e+02 4.7000000000e+00 0.0000e+00 -1.0000e+00
      -13  1    6    6    0    0 +1.2476804478e+01 -1.8779825691e+00 -4.0396509563e+01 4.2321099387e+01 0.0000000000e+00 0.0000e+00 1.0000e+00
       14  1    6    6    0    0 -3.8228086165e+01 -4.3098876271e+01 -6.3732723341e+00 5.7961351847e+01 0.0000000000e+00 0.0000e+00 -1.0000e+00
       -5  1    3    3    0  503 -2.3544628878e+01 +6.1348583029e-01 -1.3742653862e+02 1.3950938832e+02 4.7000000000e+00 0.0000e+00 1.0000e+00
       13  1    4    4    0    0 +5.9451076134e+01 +1.0768978323e+02 -1.2125701674e+02 1.7272748471e+02 0.0000000000e+00 0.0000e+00 -1.0000e+00
      -14  1    4    4    0    0 -1.5738758838e+01 -6.5533850788e+00 -2.7243628706e+00 1.7264922207e+01 0.0000000000e+00 0.0000e+00 1.0000e+00
       21  1    1    2  504  501 -2.3218678469e+01 +1.2874121572e+01 +8.2604167630e+01 8.6765768284e+01 0.0000000000e+00 0.0000e+00 -1.0000e+00
<mgrwt>
<rscale>  3 0.20532708E+03</rscale>
<asrwt>0</asrwt>
<pdfrwt beam="1">  1       21 0.23202123E-01 0.20604053E+03</pdfrwt>
<pdfrwt beam="2">  1       21 0.98269425E-01 0.20604053E+03</pdfrwt>
<totfact> 0.14805024E+04</totfact>
</mgrwt>
</event>
<event>
14      3 +1.4674046e+01 2.17181400e+02 7.54677100e-03 1.13623200e-01
       21 -1    0    0  505  502 +0.0000000000e+00 +0.0000000000e+00 +1.1981291620e+02 1.1981291620e+02 0.0000000000e+00 0.0000e+00 -1.0000e+00
       21 -1    0    0  504  503 -0.0000000000e+00 -0.0000000000e+00 -9.9154596713e+02 9.9154596713e+02 0.0000000000e+00 0.0000e+00 1.0000e+00
       -6  2    1    2    0  503 +3.4958991554e+00 -1.3793627042e+02 -2.7276906746e+02 3.5075208486e+02 1.7200414199e+02 0.0000e+00 0.0000e+00
      -24  2    3    3    0    0 -5.3668277420e+01 -3.8407664341e+01 -1.5033243932e+02 1.8286371592e+02 8.0522441652e+01 0.0000e+00 0.0000e+00
        6  2    1    2  505    0 -3.5432497923e+01 +1.2357422538e+02 -6.5036199457e+01 2.2553195023e+02 1.7351916969e+02 0.0000e+00 0.0000e+00
       24  2    5    5    0    0 -1.3679185777e+01 +4.4652434753e+01 -9.7126351269e+01 1.3320579857e+02 7.8289824433e+01 0.0000e+00 0.0000e+00
        5  1    5    5  501    0 -4.0254241164e+00 +4.1417390267e+01 +3.6622760344e+00 4.2036966132e+01 4.7000000000e+00 0.0000e+00 -1.0000e+00
      -13  1    6    6    0    0 -1.9098957753e+00 +6.2010083035e+01 -9.3059658737e+01 1.1184363274e+02 0.0000000000e+00 0.0000e+00 1.0000e+00
       14  1    6    6    0    0 -1.1769290002e+01 -1.7357648282e+01 -4.0666925320e+00 2.1362165835e+01 0.0000000000e+00 0.0000e+00 -1.0000e+00
       -5  1    3    3    0  503 +5.7164176575e+01 -9.9528606077e+01 -1.2243662815e+02 1.6788836893e+02 4.7000000000e+00 0.0000e+00 1.0000e+00
       13  1    4    4    0    0 -6.9474653882e+01 -2.3757322918e+01 -1.4180456496e+02 1.5968616899e+02 0.0000000000e+00 0.0000e+00 -1.0000e+00
      -14  1    4    4    0    0 +1.5806376462e+01 -1.4650341423e+01 -8.5278743534e+00 2.3177546929e+01 0.0000000000e+00 0.0000e+00 1.0000e+00
       21  1    1    2  504  502 +3.1936598768e+01 +1.4362045042e+01 -5.3392778401e+02 5.3507484824e+02 0.0000000000e+00 0.0000e+00 1.0000e+00
       21  1    5    5  505  501 -1.7727888029e+01 +3.7504400356e+01 +2.8427875777e+01 5.0289185530e+01 0.0000000000e+00 0.0000e+00 -1.0000e+00
<mgrwt>
<rscale>  4 0.21687865E+03</rscale>
<asrwt>0</asrwt>
<pdfrwt beam="1">  1       21 0.18432756E-01 0.21718141E+03</pdfrwt>
<pdfrwt beam="2">  1       21 0.15254553E+00 0.21718141E+03</pdfrwt>
<totfact> 0.75382234E+03</totfact>
</mgrwt>
</event>
<event>
13      2 +1.4674046e+01 1.90450500e+02 7.54677100e-03 1.16098800e-01
       21 -1    0    0  501  502 +0.0000000000e+00 +0.0000000000e+00 +3.0989530844e+02 3.0989530844e+02 0.0000000000e+00 0.0000e+00 1.0000e+00
       21 -1    0    0  504  503 -0.0000000000e+00 -0.0000000000e+00 -2.2820925228e+02 2.2820925228e+02 0.0000000000e+00 0.0000e+00 1.0000e+00
       -6  2    1    2    0  503 -3.2531712091e+01 +1.2733901362e+02 -3.5420985263e+00 2.0644136161e+02 1.5916014778e+02 0.0000e+00 0.0000e+00
      -24  2    3    3    0    0 +2.1072879897e+00 +9.1296456367e+01 +5.1701710949e+01 1.3178953816e+02 7.9724098268e+01 0.0000e+00 0.0000e+00
        6  2    1    2  501    0 -5.3066769663e+01 -1.9538104870e+01 +5.9865019730e+01 1.9169382881e+02 1.7310367943e+02 0.0000e+00 0.0000e+00
       24  2    5    5    0    0 -9.1975819569e+00 +5.3818890788e+01 +3.4364502371e+01 1.0237350175e+02 7.9488026250e+01 0.0000e+00 0.0000e+00
        5  1    5    5  501    0 -4.3869187706e+01 -7.3356995657e+01 +2.5500517358e+01 8.9320327067e+01 4.7000000000e+00 0.0000e+00 -1.0000e+00
      -13  1    6    6    0    0 +1.8703172462e+01 +3.4252051528e+01 +5.1188897709e+01 6.4368586614e+01 0.0000000000e+00 0.0000e+00 1.0000e+00
       14  1    6    6    0    0 -2.7900754419e+01 +1.9566839260e+01 -1.6824395337e+01 3.8004915132e+01 0.0000000000e+00 0.0000e+00 -1.0000e+00
       -5  1    3    3    0  503 -3.4639000081e+01 +3.6042557256e+01 -5.5243809475e+01 7.4651823457e+01 4.7000000000e+00 0.0000e+00 1.0000e+00
       13  1    4    4    0    0 +1.7576239864e+01 +1.6020545868e+01 +4.9491437378e+01 5.4908874250e+01 0.0000000000e+00 0.0000e+00 -1.0000e+00
      -14  1    4    4    0    0 -1.5468951874e+01 +7.5275910498e+01 +2.2102735705e+00 7.6880663906e+01 0.0000000000e+00 0.0000e+00 1.0000e+00
       21  1    1    2  504  502 +8.5598481754e+01 -1.0780090875e+02 +2.5363134961e+01 1.3996937030e+02 0.0000000000e+00 0.0000e+00 1.0000e+00
<mgrwt>
<rscale>  3 0.18722485E+03</rscale>
<asrwt>0</asrwt>
<pdfrwt beam="1">  1       21 0.47676201E-01 0.19045049E+03</pdfrwt>
<pdfrwt beam="2">  1       21 0.35109116E-01 0.19045049E+03</pdfrwt>
<totfact> 0.32937477E+04</totfact>
</mgrwt>
</event>
<event>
14      3 +1.4674046e+01 1.76086900e+02 7.54677100e-03 1.17166700e-01
       21 -1    0    0  504  502 +0.0000000000e+00 +0.0000000000e+00 +2.1415107247e+02 2.1415107247e+02 0.0000000000e+00 0.0000e+00 -1.0000e+00
       21 -1    0    0  501  503 -0.0000000000e+00 -0.0000000000e+00 -2.9816260495e+02 2.9816260495e+02 0.0000000000e+00 0.0000e+00 -1.0000e+00
        6  2    1    2  501    0 -1.6126748002e+01 +2.9536448114e+01 -2.0432452940e+02 2.6959907857e+02 1.7263451591e+02 0.0000e+00 0.0000e+00
       24  2    3    3    0    0 -6.8837995122e+01 +1.0112505228e+01 -6.9151173045e+01 1.2314194696e+02 7.4438713270e+01 0.0000e+00 0.0000e+00
       -6  2    1    2    0  502 -8.8631661331e+00 -4.4160456094e+01 +8.6993294450e+01 1.9857210242e+02 1.7272621394e+02 0.0000e+00 0.0000e+00
      -24  2    5    5    0    0 +1.0423304968e+01 -7.9720330214e+00 +7.9510469745e+01 1.1406062314e+02 8.0719962554e+01 0.0000e+00 0.0000e+00
        5  1    3    3  501    0 +5.2711247121e+01 +1.9423942886e+01 -1.3517335636e+02 1.4645713161e+02 4.7000000000e+00 0.0000e+00 -1.0000e+00
      -13  1    4    4    0    0 -4.8358835302e+00 +1.2800968309e+01 +1.3062846962e+01 1.8917942011e+01 0.0000000000e+00 0.0000e+00 1.0000e+00
       14  1    4    4    0    0 -6.4002111592e+01 -2.6884630804e+00 -8.2214020007e+01 1.0422400495e+02 0.0000000000e+00 0.0000e+00 -1.0000e+00
       -5  1    5    5    0  505 -4.6351914052e+00 +1.8551829203e+01 +1.8230030097e+01 2.6834294540e+01 4.7000000000e+00 0.0000e+00 1.0000e+00
       13  1    6    6    0    0 +2.8262802992e+01 -1.8895906622e+01 +8.5739947763e+01 9.2234375167e+01 0.0000000000e+00 0.0000e+00 -1.0000e+00
      -14  1    6    6    0    0 -1.7839498023e+01 +1.0923873601e+01 -6.2294780177e+00 2.1826247972e+01 0.0000000000e+00 0.0000e+00 1.0000e+00
       21  1    1    2  504  503 +2.4989914135e+01 +1.4624007979e+01 +3.3319702473e+01 4.4142496426e+01 0.0000000000e+00 0.0000e+00 -1.0000e+00
       21  1    5    5  505  502 -1.4651279696e+01 -5.4740252275e+01 -1.0747205392e+01 5.7677184741e+01 0.0000000000e+00 0.0000e+00 1.0000e+00
<mgrwt>
<rscale>  4 0.17606444E+03</rscale>
<asrwt>0</asrwt>
<pdfrwt beam="1">  1       21 0.32946319E-01 0.17608693E+03</pdfrwt>
<pdfrwt beam="2">  1       21 0.45871170E-01 0.17608693E+03</pdfrwt>
<totfact> 0.40739905E+04</totfact>
</mgrwt>
</event>
<event>
12      1 +1.4674046e+01 1.88222100e+02 7.54677100e-03 1.16082100e-01
       21 -1    0    0  501  502 +0.0000000000e+00 +0.0000000000e+00 +3.7225060284e+02 3.7225060284e+02 0.0000000000e+00 0.0000e+00 -1.0000e+00
       21 -1    0    0  502  503 -0.0000000000e+00 -0.0000000000e+00 -9.6407296968e+01 9.6407296968e+01 0.0000000000e+00 0.0000e+00 -1.0000e+00
       -6  2    1    2    0  503 +6.2310830635e+01 +4.2483779609e+01 +1.7948859389e+02 2.6008407185e+02 1.7245306013e+02 0.0000e+00 0.0000e+00
      -24  2    3    3    0    0 -2.6575426588e-01 +3.1154054427e+01 +2.2122648519e+01 9.0289129601e+01 8.1805070833e+01 0.0000e+00 0.0000e+00
        6  2    1    2  501    0 -6.2310830635e+01 -4.2483779609e+01 +9.6354711982e+01 2.0857382796e+02 1.6891210745e+02 0.0000e+00 0.0000e+00
       24  2    5    5    0    0 -3.7388651380e+01 -6.6467574280e+01 +5.8185032873e+00 1.1154170694e+02 8.1190194746e+01 0.0000e+00 0.0000e+00
        5  1    5    5  501    0 -2.4922179255e+01 +2.3983794670e+01 +9.0536208694e+01 9.7032121023e+01 4.7000000000e+00 0.0000e+00 -1.0000e+00
      -13  1    6    6    0    0 +2.5954713167e+01 -1.7807181326e+01 +2.9492889634e+00 3.1613939137e+01 0.0000000000e+00 0.0000e+00 1.0000e+00
       14  1    6    6    0    0 -6.3343364547e+01 -4.8660392953e+01 +2.8692143239e+00 7.9927767799e+01 0.0000000000e+00 0.0000e+00 -1.0000e+00
       -5  1    3    3    0  503 +6.2576584901e+01 +1.1329725183e+01 +1.5736594537e+02 1.6979494225e+02 4.7000000000e+00 0.0000e+00 1.0000e+00
       13  1    4    4    0    0 +2.6797836903e+01 -4.8649931754e+00 -1.5723912914e+01 3.1448905523e+01 0.0000000000e+00 0.0000e+00 -1.0000e+00
      -14  1    4    4    0    0 -2.7063591169e+01 +3.6019047602e+01 +3.7846561433e+01 5.8840224077e+01 0.0000000000e+00 0.0000e+00 1.0000e+00
<mgrwt>
<rscale>  2 0.18740714E+03</rscale>
<asrwt>0</asrwt>
<pdfrwt beam="1">  1       21 0.57269323E-01 0.18822213E+03</pdfrwt>
<pdfrwt beam="2">  1       21 0.14831892E-01 0.18822213E+03</pdfrwt>
<totfact> 0.11481076E+05</totfact>
</mgrwt>
</event>
<event>
14      3 +1.4674046e+01 1.74024500e+02 7.54677100e-03 1.17475600e-01
       21 -1    0    0  504  502 +0.0000000000e+00 +0.0000000000e+00 +2.5107680107e+02 2.5107680107e+02 0.0000000000e+00 0.0000e+00 1.0000e+00
       21 -1    0    0  501  503 -0.0000000000e+00 -0.0000000000e+00 -2.1699392865e+02 2.1699392865e+02 0.0000000000e+00 0.0000e+00 1.0000e+00
        6  2    1    2  501    0 +8.5135536368e+00 +9.9860800238e+00 -1.3282711071e+01 1.7370773012e+02 1.7270131065e+02 0.0000e+00 0.0000e+00
       24  2    3    3    0    0 -5.5011914164e+01 -3.9112609511e+00 -3.6831513225e+01 1.0438776742e+02 8.0614123812e+01 0.0000e+00 0.0000e+00
       -6  2    1    2    0  502 +2.9743428638e+01 -2.2898545353e+01 -5.3112085954e+01 1.8071107565e+02 1.6860185130e+02 0.0000e+00 0.0000e+00
      -24  2    5    5    0    0 +4.3368558595e+01 +1.1210042352e+01 +2.3298181619e+01 9.5801365295e+01 8.1416210926e+01 0.0000e+00 0.0000e+00
        5  1    3    3  501    0 +6.3525467801e+01 +1.3897340975e+01 +2.3548802154e+01 6.9319962698e+01 4.7000000000e+00 0.0000e+00 -1.0000e+00
      -13  1    4    4    0    0 -2.4734918854e+01 -2.0627619178e+01 +1.9962347059e+01 3.7892086030e+01 0.0000000000e+00 0.0000e+00 1.0000e+00
       14  1    4    4    0    0 -3.0276995311e+01 +1.6716358227e+01 -5.6793860284e+01 6.6495681388e+01 0.0000000000e+00 0.0000e+00 -1.0000e+00
       -5  1    5    5    0  502 -1.3625129956e+01 -3.4108587705e+01 -7.6410267573e+01 8.4909710352e+01 4.7000000000e+00 0.0000e+00 1.0000e+00
       13  1    6    6    0    0 +4.4680643711e+01 +3.7604299965e+01 -3.0567893385e+00 5.8478947146e+01 0.0000000000e+00 0.0000e+00 -1.0000e+00
      -14  1    6    6    0    0 -1.3120851162e+00 -2.6394257613e+01 +2.6354970957e+01 3.7322418148e+01 0.0000000000e+00 0.0000e+00 1.0000e+00
       21  1    1    2  504  505 -2.5118767265e+01 -9.2938438250e+00 +5.9151226998e+01 6.4932238968e+01 0.0000000000e+00 0.0000e+00 -1.0000e+00
       21  1    1    2  505  503 -1.3138215010e+01 +2.2206309154e+01 +4.1326442445e+01 4.8719684985e+01 0.0000000000e+00 0.0000e+00 1.0000e+00
<mgrwt>
<rscale>  4 0.17299863E+03</rscale>
<asrwt>0</asrwt>
<pdfrwt beam="1">  1       21 0.38627200E-01 0.17402455E+03</pdfrwt>
<pdfrwt beam="2">  1       21 0.33383681E-01 0.17402455E+03</pdfrwt>
<totfact> 0.56325948E+04</totfact>
</mgrwt>
</event>
<event>
14      3 +1.4674046e+01 2.16833200e+02 7.54677100e-03 1.13641100e-01
       21 -1    0    0  505  502 +0.0000000000e+00 +0.0000000000e+00 +4.4887670151e+02 4.4887670151e+02 0.0000000000e+00 0.0000e+00 1.0000e+00
       21 -1    0    0  501  503 -0.0000000000e+00 -0.0000000000e+00 -1.6840569063e+02 1.6840569063e+02 0.0000000000e+00 0.0000e+00 1.0000e+00
        6  2    1    2  501    0 +1.1790066920e+02 +2.6272629678e+01 +8.9427593159e+01 2.2956361825e+02 1.7352619842e+02 0.0000e+00 0.0000e+00
       24  2    3    3    0    0 +8.0007798457e+01 -7.4262550878e+00 -1.3819043973e+01 1.1444002133e+02 8.0306633773e+01 0.0000e+00 0.0000e+00
       -6  2    1    2    0  504 -1.3055892449e+02 -4.9189725045e+01 +1.1637989280e+02 2.5058101087e+02 1.7257259849e+02 0.0000e+00 0.0000e+00
      -24  2    5    5    0    0 -1.5349456950e+01 -4.8418271175e+01 +9.5767949366e+01 1.3344536829e+02 7.7821792450e+01 0.0000e+00 0.0000e+00
        5  1    3    3  501    0 +3.7892870738e+01 +3.3698884766e+01 +1.0324663713e+02 1.1512359691e+02 4.7000000000e+00 0.0000e+00 -1.0000e+00
      -13  1    4    4    0    0 +2.1461524221e+01 -4.0880732069e+01 -5.7618419820e+00 4.6529883939e+01 0.0000000000e+00 0.0000e+00 1.0000e+00
       14  1    4    4    0    0 +5.8546274236e+01 +3.3454476981e+01 -8.0572019906e+00 6.7910137394e+01 0.0000000000e+00 0.0000e+00 -1.0000e+00
       -5  1    5    5    0  504 -1.1520946754e+02 -7.7145387036e-01 +2.0611943437e+01 1.1713564258e+02 4.7000000000e+00 0.0000e+00 1.0000e+00
       13  1    6    6    0    0 -1.1286481449e+01 -2.0486748969e+01 -8.9094184166e+00 2.5029368417e+01 0.0000000000e+00 0.0000e+00 -1.0000e+00
      -14  1    6    6    0    0 -4.0629755011e+00 -2.7931522206e+01 +1.0467736778e+02 1.0841599987e+02 0.0000000000e+00 0.0000e+00 1.0000e+00
       21  1    1    2  504  502 +6.6278976015e+00 -1.9329796443e+01 +8.9618061244e+01 9.1918262376e+01 0.0000000000e+00 0.0000e+00 1.0000e+00
       21  1    1    2  505  503 +6.0303576905e+00 +4.2246891810e+01 -1.4954536332e+01 4.5219500643e+01 0.0000000000e+00 0.0000e+00 -1.0000e+00
<mgrwt>
<rscale>  4 0.21664233E+03</rscale>
<asrwt>0</asrwt>
<pdfrwt beam="1">  1       21 0.69057954E-01 0.21683318E+03</pdfrwt>
<pdfrwt beam="2">  1       21 0.25908568E-01 0.21683318E+03</pdfrwt>
<totfact> 0.26646272E+04</totfact>
</mgrwt>
</event>
<event>
12      1 +1.4674046e+01 1.75378800e+02 7.54677100e-03 1.17256000e-01
       21 -1    0    0  501  502 +0.0000000000e+00 +0.0000000000e+00 +2.4685930437e+01 2.4685930437e+01 0.0000000000e+00 0.0000e+00 1.0000e+00
       21 -1    0    0  502  503 -0.0000000000e+00 -0.0000000000e+00 -1.2641672495e+03 1.2641672495e+03 0.0000000000e+00 0.0000e+00 1.0000e+00
       -6  2    1    2    0  503 -2.0465762637e+01 -1.1134204858e+01 -7.1012062711e+02 7.3145677791e+02 1.7382432207e+02 0.0000e+00 0.0000e+00
      -24  2    3    3    0    0 -3.8071671432e+01 +5.6228558177e+01 -4.2524333467e+02 4.3815680925e+02 8.0860329516e+01 0.0000e+00 0.0000e+00
        6  2    1    2  501    0 +2.0465762637e+01 +1.1134204858e+01 -5.2936069195e+02 5.5739640203e+02 1.7298898477e+02 0.0000e+00 0.0000e+00
       24  2    5    5    0    0 -2.3109439974e+01 +5.7345934202e+01 -2.3609799175e+02 2.5729737914e+02 8.1468258947e+01 0.0000e+00 0.0000e+00
        5  1    5    5  501    0 +4.3575202611e+01 -4.6211729344e+01 -2.9326270020e+02 3.0009902289e+02 4.7000000000e+00 0.0000e+00 -1.0000e+00
      -13  1    6    6    0    0 -1.8703044453e+01 +6.5384015739e+01 -1.0024811900e+02 1.2113859315e+02 0.0000000000e+00 0.0000e+00 1.0000e+00
       14  1    6    6    0    0 -4.4063955215e+00 -8.0380815368e+00 -1.3584987275e+02 1.3615878599e+02 0.0000000000e+00 0.0000e+00 -1.0000e+00
       -5  1    3    3    0  503 +1.7605908795e+01 -6.7362763035e+01 -2.8487729244e+02 2.9329996866e+02 4.7000000000e+00 0.0000e+00 1.0000e+00
       13  1    4    4    0    0 +2.3294167422e+01 +2.4051815680e+01 -1.8974159054e+02 1.9267324478e+02 0.0000000000e+00 0.0000e+00 -1.0000e+00
      -14  1    4    4    0    0 -6.1365838854e+01 +3.2176742497e+01 -2.3550174413e+02 2.4548356447e+02 0.0000000000e+00 0.0000e+00 1.0000e+00
<mgrwt>
<rscale>  2 0.17517143E+03</rscale>
<asrwt>0</asrwt>
<pdfrwt beam="1">  1       21 0.37978335E-02 0.17537877E+03</pdfrwt>
<pdfrwt beam="2">  1       21 0.19448737E+00 0.17537877E+03</pdfrwt>
<totfact> 0.62973932E+04</totfact>
</mgrwt>
</event>
<event>
12      1 +1.4674046e+01 2.36310700e+02 7.54677100e-03 1.12415300e-01
       21 -1    0    0  501  502 +0.0000000000e+00 +0.0000000000e+00 +8.5530124392e+01 8.5530124392e+01 0.0000000000e+00 0.0000e+00 -1.0000e+00
       21 -1    0    0  502  503 -0.0000000000e+00 -0.0000000000e+00 -6.5329786529e+02 6.5329786529e+02 0.0000000000e+00 0.0000e+00 1.0000e+00
       -6  2    1    2    0  503 +1.4610843916e+02 +6.7497025400e+01 -3.6913347498e+02 4.3829472352e+02 1.7302952893e+02 0.0000e+00 0.0000e+00
      -24  2    3    3    0    0 +1.7355223978e+02 +5.2981080195e+01 -3.4781520751e+02 4.0034168168e+02 7.9816468995e+01 0.0000e+00 0.0000e+00
        6  2    1    2  501    0 -1.4610843916e+02 -6.7497025400e+01 -1.9863426592e+02 3.0053326616e+02 1.5799097455e+02 0.0000e+00 0.0000e+00
       24  2    5    5    0    0 -4.4311061369e+01 -6.5992819334e+01 -1.5068872497e+02 1.8790185998e+02 7.9255881725e+01 0.0000e+00 0.0000e+00
        5  1    5    5  501    0 -1.0179737779e+02 -1.5042060663e+00 -4.7945540952e+01 1.1263140618e+02 4.7000000000e+00 0.0000e+00 -1.0000e+00
      -13  1    6    6    0    0 -4.2866830716e+01 -4.8894455405e+01 -1.5675116168e+02 1.6970315151e+02 0.0000000000e+00 0.0000e+00 1.0000e+00
       14  1    6    6    0    0 -1.4442306536e+00 -1.7098363929e+01 +6.0624367071e+00 1.8198708472e+01 0.0000000000e+00 0.0000e+00 -1.0000e+00
       -5  1    3    3    0  503 -2.7443800612e+01 +1.4515945205e+01 -2.1318267464e+01 3.7953041840e+01 4.7000000000e+00 0.0000e+00 1.0000e+00
       13  1    4    4    0    0 +1.3358145677e+01 -1.0249440223e+01 -6.5198744051e+00 1.8055465739e+01 0.0000000000e+00 0.0000e+00 -1.0000e+00
      -14  1    4    4    0    0 +1.6019409410e+02 +6.3230520418e+01 -3.4129533311e+02 3.8228621594e+02 0.0000000000e+00 0.0000e+00 1.0000e+00
<mgrwt>
<rscale>  2 0.23356865E+03</rscale>
<asrwt>0</asrwt>
<pdfrwt beam="1">  1       21 0.13158480E-01 0.23631069E+03</pdfrwt>
<pdfrwt beam="2">  1       21 0.10050737E+00 0.23631069E+03</pdfrwt>
<totfact> 0.39456278E+04</totfact>
</mgrwt>
</event>
<event>
13      3 +1.4674046e+01 5.33000500e+02 7.54677100e-03 1.03415700e-01
        2 -1    0    0  503    0 +0.0000000000e+00 +0.0000000000e+00 +2.0902638596e+03 2.0902638596e+03 0.0000000000e+00 0.0000e+00 -1.0000e+00
        1 -1    0    0  501    0 -0.0000000000e+00 -0.0000000000e+00 -1.7361520991e+03 1.7361520991e+03 0.0000000000e+00 0.0000e+00 1.0000e+00
        6  2    1    2  501    0 +1.6704178457e+02 -3.8936506075e+01 -4.5155758895e+02 5.1290312295e+02 1.7247129647e+02 0.0000e+00 0.0000e+00
       24  2    3    3    0    0 +5.6089549692e+01 -7.1507986092e+01 -2.9256434348e+02 3.1625053121e+02 7.8492507655e+01 0.0000e+00 0.0000e+00
      -24  2    1    2    0    0 -7.6428554715e+01 +2.3088066173e+02 +1.4032161373e+02 2.9171993250e+02 7.9140127644e+01 0.0000e+00 0.0000e+00
        5  1    3    3  501    0 +1.1095223488e+02 +3.2571480017e+01 -1.5899324547e+02 1.9665259174e+02 4.7000000000e+00 0.0000e+00 -1.0000e+00
      -13  1    4    4    0    0 +7.6254618324e+01 -5.5675801592e+01 -2.2710807482e+02 2.4595251442e+02 0.0000000000e+00 0.0000e+00 1.0000e+00
       14  1    4    4    0    0 -2.0165068633e+01 -1.5832184500e+01 -6.5456268654e+01 7.0298016793e+01 0.0000000000e+00 0.0000e+00 -1.0000e+00
       -5  1    1    2    0  502 -7.5218669626e+01 -2.4938600516e+02 -6.2417694563e+00 2.6059984175e+02 4.7000000000e+00 0.0000e+00 1.0000e+00
       13  1    5    5    0    0 -4.4151503191e+01 +1.2971800701e+02 +1.2299201055e+02 1.8412808378e+02 0.0000000000e+00 0.0000e+00 -1.0000e+00
      -14  1    5    5    0    0 -3.2277051524e+01 +1.0116265472e+02 +1.7329603174e+01 1.0759184873e+02 0.0000000000e+00 0.0000e+00 1.0000e+00
        2  1    1    2  502    0 +2.2209687961e+01 +1.4694067603e+01 +1.7155122496e+03 1.7157189352e+03 0.0000000000e+00 0.0000e+00 -1.0000e+00
        1  1    1    2  503    0 -3.7604248188e+01 +4.2747781906e+01 -1.0439227445e+03 1.0454741263e+03 0.0000000000e+00 0.0000e+00 1.0000e+00
<mgrwt>
<rscale>  4 0.42906239E+03</rscale>
<asrwt>0</asrwt>
<pdfrwt beam="1">  1        2 0.32157906E+00 0.53300045E+03</pdfrwt>
<pdfrwt beam="2">  1        1 0.26710032E+00 0.53300045E+03</pdfrwt>
<totfact> 0.40421981E+00</totfact>
</mgrwt>
</event>
<event>
14      3 +1.4674046e+01 2.32743700e+02 7.54677100e-03 1.12478700e-01
        2 -1    0    0  501    0 -0.0000000000e+00 +0.0000000000e+00 +5.0184311886e+02 5.0184311886e+02 0.0000000000e+00 0.0000e+00 1.0000e+00
       21 -1    0    0  504  503 +0.0000000000e+00 -0.0000000000e+00 -2.5519695896e+02 2.5519695896e+02 0.0000000000e+00 0.0000e+00 -1.0000e+00
        6  2    1    2  501    0 -3.9324928698e+01 +2.6505299070e+02 +1.0421576027e+02 3.3545018248e+02 1.7281887148e+02 0.0000e+00 0.0000e+00
       24  2    3    3    0    0 -2.3221697734e+00 +1.3197441395e+02 -1.0365469514e+01 1.5592285871e+02 8.2352027919e+01 0.0000e+00 0.0000e+00
       -6  2    1    2    0  503 +5.8121908816e+01 -8.5255943749e+01 +2.3941503830e+01 2.0311594190e+02 1.7330942854e+02 0.0000e+00 0.0000e+00
      -24  2    5    5    0    0 -3.2506856877e+01 -2.2637508307e+01 -2.2433581043e+00 8.9791722857e+01 8.0550408513e+01 0.0000e+00 0.0000e+00
        5  1    3    3  501    0 -3.7002758925e+01 +1.3307857675e+02 +1.1458122978e+02 1.7952732376e+02 4.7000000000e+00 0.0000e+00 -1.0000e+00
      -13  1    4    4    0    0 -9.2974185691e-01 -1.0218260474e+01 +7.3538266002e+00 1.2623629934e+01 0.0000000000e+00 0.0000e+00 1.0000e+00
       14  1    4    4    0    0 -1.3924279165e+00 +1.4219267442e+02 -1.7719296115e+01 1.4329922878e+02 0.0000000000e+00 0.0000e+00 -1.0000e+00
       -5  1    5    5    0  503 +9.0628765694e+01 -6.2618435442e+01 +2.6184861934e+01 1.1332421905e+02 4.7000000000e+00 0.0000e+00 1.0000e+00
       13  1    6    6    0    0 +6.3075473469e+00 +1.3884151188e+01 -2.7014048421e+01 3.1021180182e+01 0.0000000000e+00 0.0000e+00 -1.0000e+00
      -14  1    6    6    0    0 -3.8814404224e+01 -3.6521659495e+01 +2.4770690317e+01 5.8770542675e+01 0.0000000000e+00 0.0000e+00 1.0000e+00
       21  1    1    2  504  502 -1.5120910533e+01 -3.4987151540e+01 +1.7839504821e+01 4.2083139622e+01 0.0000000000e+00 0.0000e+00 1.0000e+00
        2  1    1    2  502    0 -3.6760695855e+00 -1.4480989541e+02 +1.0064939098e+02 1.7639081383e+02 0.0000000000e+00 0.0000e+00 1.0000e+00
<mgrwt>
<rscale>  4 0.23265241E+03</rscale>
<asrwt>0</asrwt>
<pdfrwt beam="2">  1       21 0.39261071E-01 0.23274372E+03</pdfrwt>
<pdfrwt beam="1">  1        2 0.77206634E-01 0.23274372E+03</pdfrwt>
<totfact> 0.47938656E+03</totfact>
</mgrwt>
</event>
<event>
12      1 +1.4674046e+01 1.88727900e+02 7.54677100e-03 1.15961400e-01
       -1 -1    0    0    0  501 -0.0000000000e+00 +0.0000000000e+00 +6.8728067447e+01 6.8728067447e+01 0.0000000000e+00 0.0000e+00 1.0000e+00
        1 -1    0    0  502    0 +0.0000000000e+00 -0.0000000000e+00 -5.2008727849e+02 5.2008727849e+02 0.0000000000e+00 0.0000e+00 -1.0000e+00
        6  2    1    2  502    0 +4.9391822832e+01 +4.4158526469e+01 -2.1291023437e+02 2.8674639542e+02 1.8028643810e+02 0.0000e+00 0.0000e+00
       24  2    3    3    0    0 +1.0072707666e+02 +4.4845449387e+01 -1.7652047366e+02 2.2364263299e+02 8.1850420685e+01 0.0000e+00 0.0000e+00
       -6  2    1    2    0  501 -4.9391822832e+01 -4.4158526469e+01 -2.3844897667e+02 3.0206895052e+02 1.7319990984e+02 0.0000e+00 0.0000e+00
      -24  2    5    5    0    0 +1.3243937171e+01 -5.6909641397e+01 -2.1114214277e+02 2.3240129273e+02 7.7558025101e+01 0.0000e+00 0.0000e+00
        5  1    3    3  502    0 -5.1335253824e+01 -6.8692291746e-01 -3.6389760708e+01 6.3103762429e+01 4.7000000000e+00 0.0000e+00 -1.0000e+00
      -13  1    4    4    0    0 +2.6689772598e+01 +1.1406509033e+01 +3.2861994292e-01 2.9026890993e+01 0.0000000000e+00 0.0000e+00 1.0000e+00
       14  1    4    4    0    0 +7.4037304058e+01 +3.3438940354e+01 -1.7684909360e+02 1.9461574199e+02 0.0000000000e+00 0.0000e+00 -1.0000e+00
       -5  1    5    5    0  501 -6.2635760003e+01 +1.2751114927e+01 -2.7306833908e+01 6.9667657784e+01 4.7000000000e+00 0.0000e+00 1.0000e+00
       13  1    6    6    0    0 +1.5150170416e+01 -6.4026145663e+01 -9.2402052624e+01 1.1343286262e+02 0.0000000000e+00 0.0000e+00 -1.0000e+00
      -14  1    6    6    0    0 -1.9062332443e+00 +7.1165042666e+00 -1.1874009014e+02 1.1896843012e+02 0.0000000000e+00 0.0000e+00 1.0000e+00
<mgrwt>
<rscale>  2 0.18872789E+03</rscale>
<asrwt>0</asrwt>
<pdfrwt beam="2">  1        1 0.80013425E-01 0.18872789E+03</pdfrwt>
<pdfrwt beam="1">  1       -1 0.10573549E-01 0.18872789E+03</pdfrwt>
<totfact> 0.23661502E+03</totfact>
</mgrwt>
</event>
<event>
13      2 +1.4674046e+01 1.88782700e+02 7.54677100e-03 1.16039600e-01
       21 -1    0    0  501  502 +0.0000000000e+00 +0.0000000000e+00 +2.7038836833e+02 2.7038836833e+02 0.0000000000e+00 0.0000e+00 -1.0000e+00
       21 -1    0    0  504  503 -0.0000000000e+00 -0.0000000000e+00 -1.4996560283e+02 1.4996560283e+02 0.0000000000e+00 0.0000e+00 -1.0000e+00
       -6  2    1    2    0  503 -4.6403357184e+01 +5.2134709446e+01 +6.9213301397e+01 2.0223751132e+02 1.7674340273e+02 0.0000e+00 0.0000e+00
      -24  2    3    3    0    0 +2.4806062088e+01 +6.4776788230e+01 +7.0421439226e+00 1.0674957297e+02 8.0836294624e+01 0.0000e+00 0.0000e+00
        6  2    1    2  501    0 +5.6026955459e+01 -3.2165202989e+01 +6.0314336473e+01 1.9415203761e+02 1.7286866258e+02 0.0000e+00 0.0000e+00
       24  2    5    5    0    0 +1.3679041126e+00 +2.6185519795e+01 +1.6117374074e+00 9.4851967719e+01 9.1141348872e+01 0.0000e+00 0.0000e+00
        5  1    5    5  501    0 +5.4659051346e+01 -5.8350722784e+01 +5.8702599065e+01 9.9300069891e+01 4.7000000000e+00 0.0000e+00 -1.0000e+00
      -13  1    6    6    0    0 -2.2254276306e+01 +2.1864428807e+01 +3.9291129896e+01 5.0170698116e+01 0.0000000000e+00 0.0000e+00 1.0000e+00
       14  1    6    6    0    0 +2.3622180419e+01 +4.3210909875e+00 -3.7679392488e+01 4.4681269603e+01 0.0000000000e+00 0.0000e+00 -1.0000e+00
       -5  1    3    3    0  503 -7.1209419272e+01 -1.2642078784e+01 +6.2171157474e+01 9.5487938352e+01 4.7000000000e+00 0.0000e+00 1.0000e+00
       13  1    4    4    0    0 +1.4500375389e+01 +7.6740569516e+01 +2.5781964401e+01 8.2244061089e+01 0.0000000000e+00 0.0000e+00 -1.0000e+00
      -14  1    4    4    0    0 +1.0305686700e+01 -1.1963781286e+01 -1.8739820478e+01 2.4505511881e+01 0.0000000000e+00 0.0000e+00 1.0000e+00
       21  1    1    2  504  502 -9.6235982748e+00 -1.9969506458e+01 -9.1048723732e+00 2.3964422231e+01 0.0000000000e+00 0.0000e+00 -1.0000e+00
<mgrwt>
<rscale>  3 0.18787045E+03</rscale>
<asrwt>0</asrwt>
<pdfrwt beam="1">  1       21 0.41598211E-01 0.18878270E+03</pdfrwt>
<pdfrwt beam="2">  1       21 0.23071631E-01 0.18878270E+03</pdfrwt>
<totfact> 0.98315884E+04</totfact>
</mgrwt>
</event>
<event>
14      3 +1.4674046e+01 2.00275800e+02 7.54677100e-03 1.14952500e-01
       21 -1    0    0  504  502 +0.0000000000e+00 +0.0000000000e+00 +1.4195490763e+03 1.4195490763e+03 0.0000000000e+00 0.0000e+00 -1.0000e+00
       21 -1    0    0  505  503 -0.0000000000e+00 -0.0000000000e+00 -7.1653341678e+01 7.1653341678e+01 0.0000000000e+00 0.0000e+00 -1.0000e+00
        6  2    1    2  501    0 +9.8110363612e+01 -5.9007245070e+01 +2.0678456520e+02 2.9334210784e+02 1.7373035835e+02 0.0000e+00 0.0000e+00
       24  2    3    3    0    0 +8.8457581943e+01 -9.6962680542e+01 +2.0134090801e+02 2.5352358603e+02 8.0681734086e+01 0.0000e+00 0.0000e+00
       -6  2    1    2    0  502 -7.7969871010e+01 +8.7822844798e+01 +1.0215244418e+03 1.0428433289e+03 1.7383288096e+02 0.0000e+00 0.0000e+00
      -24  2    5    5    0    0 -8.3817798014e+01 +1.0490571004e+02 +5.7641066567e+02 5.9733868665e+02 8.0830809739e+01 0.0000e+00 0.0000e+00
        5  1    3    3  501    0 +9.6527816693e+00 +3.7955435472e+01 +5.4436571881e+00 3.9818521813e+01 4.7000000000e+00 0.0000e+00 -1.0000e+00
      -13  1    4    4    0    0 +1.8329842931e+01 +1.3799782643e+01 +2.8383944549e+01 3.6497471845e+01 0.0000000000e+00 0.0000e+00 1.0000e+00
       14  1    4    4    0    0 +7.0127739012e+01 -1.1076246318e+02 +1.7295696346e+02 2.1702611419e+02 0.0000000000e+00 0.0000e+00 -1.0000e+00
       -5  1    5    5    0  502 +5.8479270035e+00 -1.7082865241e+01 +4.4511377613e+02 4.4550464222e+02 4.7000000000e+00 0.0000e+00 1.0000e+00
       13  1    6    6    0    0 -6.8005197998e+01 +1.1478226154e+02 +5.4225003097e+02 5.5842167813e+02 0.0000000000e+00 0.0000e+00 -1.0000e+00
      -14  1    6    6    0    0 -1.5812600016e+01 -9.8765514989e+00 +3.4160634706e+01 3.8917008521e+01 0.0000000000e+00 0.0000e+00 1.0000e+00
       21  1    1    2  504  503 +2.5008815936e+01 -1.5022223959e+01 +9.9541014612e+01 1.0372811421e+02 0.0000000000e+00 0.0000e+00 1.0000e+00
       21  1    1    2  505  501 -4.5149308538e+01 -1.3793375769e+01 +2.0045713047e+01 5.1288867098e+01 0.0000000000e+00 0.0000e+00 -1.0000e+00
<mgrwt>
<rscale>  4 0.20025350E+03</rscale>
<asrwt>0</asrwt>
<pdfrwt beam="1">  1       21 0.21839214E+00 0.20027575E+03</pdfrwt>
<pdfrwt beam="2">  1       21 0.11023592E-01 0.20027575E+03</pdfrwt>
<totfact> 0.69771293E+03</totfact>
</mgrwt>
</event>
<event>
14      3 +1.4674046e+01 2.22073500e+02 7.54677100e-03 1.13237400e-01
       21 -1    0    0  505  502 +0.0000000000e+00 +0.0000000000e+00 +2.2389593203e+03 2.2389593203e+03 0.0000000000e+00 0.0000e+00 -1.0000e+00
       21 -1    0    0  502  503 -0.0000000000e+00 -0.0000000000e+00 -4.4271065195e+01 4.4271065195e+01 0.0000000000e+00 0.0000e+00 -1.0000e+00
       -6  2    1    2    0  504 -1.2687720959e+02 +1.2851472488e+02 +9.7350676208e+02 1.0050643265e+03 1.7269922894e+02 0.0000e+00 0.0000e+00
      -24  2    3    3    0    0 -1.2484384636e+02 +8.9821407002e+01 +4.8075269891e+02 5.1076688141e+02 7.8139481069e+01 0.0000e+00 0.0000e+00
        6  2    1    2  501    0 +3.4450998408e+01 -1.1936271804e+02 +5.1264414038e+02 5.5497476166e+02 1.7250693222e+02 0.0000e+00 0.0000e+00
       24  2    5    5    0    0 +5.8640595972e+01 -9.5567145163e+00 +2.1984409896e+02 2.4129267850e+02 7.9753862360e+01 0.0000e+00 0.0000e+00
        5  1    5    5  501    0 -2.4189597564e+01 -1.0980600353e+02 +2.9280004142e+02 3.1368208316e+02 4.7000000000e+00 0.0000e+00 -1.0000e+00
      -13  1    6    6    0    0 +6.9968142115e+01 +1.9269323984e+00 +2.1219386875e+02 2.2344013049e+02 0.0000000000e+00 0.0000e+00 1.0000e+00
       14  1    6    6    0    0 -1.1327546143e+01 -1.1483646915e+01 +7.6502302118e+00 1.7852548008e+01 0.0000000000e+00 0.0000e+00 -1.0000e+00
       -5  1    3    3    0  504 -2.0333632355e+00 +3.8693317876e+01 +4.9275406317e+02 4.9429744505e+02 4.7000000000e+00 0.0000e+00 1.0000e+00
       13  1    4    4    0    0 -1.1884854833e+02 +6.0611425330e+01 +4.4303128992e+02 4.6268287862e+02 0.0000000000e+00 0.0000e+00 -1.0000e+00
      -14  1    4    4    0    0 -5.9952980319e+00 +2.9209981672e+01 +3.7721408997e+01 4.8084002792e+01 0.0000000000e+00 0.0000e+00 1.0000e+00
       21  1    1    2  504  503 +9.0297494878e+01 +1.3593977559e+01 +2.9013392324e+02 3.0416463835e+02 0.0000000000e+00 0.0000e+00 -1.0000e+00
       21  1    1    2  505  501 +2.1287163085e+00 -2.2745984393e+01 +4.1840342939e+02 4.1902665902e+02 0.0000000000e+00 0.0000e+00 -1.0000e+00
<mgrwt>
<rscale>  4 0.22203614E+03</rscale>
<asrwt>0</asrwt>
<pdfrwt beam="1">  1       21 0.34445519E+00 0.22207353E+03</pdfrwt>
<pdfrwt beam="2">  1       21 0.68109349E-02 0.22207353E+03</pdfrwt>
<totfact> 0.28823888E+03</totfact>
</mgrwt>
</event>
<event>
14      3 +1.4674046e+01 3.25997900e+02 7.54677100e-03 1.07297900e-01
        2 -1    0    0  503    0 -0.0000000000e+00 +0.0000000000e+00 +1.6344270174e+03 1.6344270174e+03 0.0000000000e+00 0.0000e+00 -1.0000e+00
       21 -1    0    0  501  503 +0.0000000000e+00 -0.0000000000e+00 -4.3318895932e+02 4.3318895932e+02 0.0000000000e+00 0.0000e+00 1.0000e+00
       -6  2    1    2    0  504 +8.7129335316e+01 +2.5855626378e+02 +4.1279973379e+02 5.2458155734e+02 1.7418188041e+02 0.0000e+00 0.0000e+00
      -24  2    3    3    0    0 +9.1901103660e+01 +1.7497683903e+02 +3.7736312115e+02 4.3355335550e+02 8.0640435293e+01 0.0000e+00 0.0000e+00
        6  2    1    2  501    0 -2.5917238815e+02 -1.2543767329e+02 -2.8609421008e+02 4.4131657375e+02 1.7322091263e+02 0.0000e+00 0.0000e+00
       24  2    5    5    0    0 -1.9118468574e+02 -4.5500723460e+01 -2.5428842856e+02 3.3156256989e+02 8.1542828956e+01 0.0000e+00 0.0000e+00
        5  1    5    5  501    0 -6.7987702410e+01 -7.9936949828e+01 -3.1805781514e+01 1.0975400387e+02 4.7000000000e+00 0.0000e+00 -1.0000e+00
      -13  1    6    6    0    0 -1.3934290960e+02 -1.0354702293e+01 -1.2321806251e+02 1.8629642306e+02 0.0000000000e+00 0.0000e+00 1.0000e+00
       14  1    6    6    0    0 -5.1841776131e+01 -3.5146021168e+01 -1.3107036605e+02 1.4526614683e+02 0.0000000000e+00 0.0000e+00 -1.0000e+00
       -5  1    3    3    0  504 -4.7717683442e+00 +8.3579424751e+01 +3.5436612638e+01 9.1028201839e+01 4.7000000000e+00 0.0000e+00 1.0000e+00
       13  1    4    4    0    0 +4.3386431855e+01 +3.9500950751e+01 +5.4531844894e+01 8.0102619726e+01 0.0000000000e+00 0.0000e+00 -1.0000e+00
      -14  1    4    4    0    0 +4.8514671805e+01 +1.3547588828e+02 +3.2283127626e+02 3.5345073577e+02 0.0000000000e+00 0.0000e+00 1.0000e+00
       21  1    1    2  504  502 +1.3638013520e+02 -1.2347863028e+02 +1.0158523589e+03 1.0323771251e+03 0.0000000000e+00 0.0000e+00 -1.0000e+00
        2  1    1    2  502    0 +3.5662917632e+01 -9.6399602177e+00 +5.8680175484e+01 6.9340720518e+01 0.0000000000e+00 0.0000e+00 -1.0000e+00
<mgrwt>
<rscale>  4 0.32586972E+03</rscale>
<asrwt>0</asrwt>
<pdfrwt beam="2">  1       21 0.66644456E-01 0.32599790E+03</pdfrwt>
<pdfrwt beam="1">  1        2 0.25145031E+00 0.32599790E+03</pdfrwt>
<totfact> 0.28295812E+02</totfact>
</mgrwt>
</event>
<event>
12      1 +1.4674046e+01 2.36822800e+02 7.54677100e-03 1.12497100e-01
       21 -1    0    0  503  502 +0.0000000000e+00 +0.0000000000e+00 +8.1645038843e+01 8.1645038843e+01 0.0000000000e+00 0.0000e+00 1.0000e+00
       21 -1    0    0  501  503 -0.0000000000e+00 -0.0000000000e+00 -7.9586420360e+02 7.9586420360e+02 0.0000000000e+00 0.0000e+00 -1.0000e+00
        6  2    1    2  501    0 -2.9622621518e+01 -1.3239827907e+02 -5.4170854004e+02 5.8451616168e+02 1.7263892058e+02 0.0000e+00 0.0000e+00
       24  2    3    3    0    0 -2.6216000133e+01 -1.4386946341e+02 -5.4602869274e+02 5.7095346066e+02 8.0341893042e+01 0.0000e+00 0.0000e+00
       -6  2    1    2    0  502 +2.9622621518e+01 +1.3239827907e+02 -1.7251062471e+02 2.9299308077e+02 1.9410879870e+02 0.0000e+00 0.0000e+00
      -24  2    5    5    0    0 +6.8151766387e+01 +9.7233515832e+01 -4.0619552041e+01 1.5108324803e+02 8.4125976745e+01 0.0000e+00 0.0000e+00
        5  1    3    3  501    0 -3.4066213852e+00 +1.1471184341e+01 +4.3201527007e+00 1.3562701014e+01 4.7000000000e+00 0.0000e+00 -1.0000e+00
      -13  1    4    4    0    0 +1.0253593616e+01 +3.8257424745e+00 -1.5033896480e+01 1.8595443821e+01 0.0000000000e+00 0.0000e+00 1.0000e+00
       14  1    4    4    0    0 -3.6469593749e+01 -1.4769520588e+02 -5.3099479626e+02 5.5235801684e+02 0.0000000000e+00 0.0000e+00 -1.0000e+00
       -5  1    5    5    0  502 -3.8529144869e+01 +3.5164763236e+01 -1.3189107267e+02 1.4190983274e+02 4.7000000000e+00 0.0000e+00 1.0000e+00
       13  1    6    6    0    0 +4.8668894510e+01 +6.3162242763e+01 -6.6702455749e+01 1.0395839459e+02 0.0000000000e+00 0.0000e+00 -1.0000e+00
      -14  1    6    6    0    0 +1.9482871877e+01 +3.4071273069e+01 +2.6082903708e+01 4.7124853432e+01 0.0000000000e+00 0.0000e+00 1.0000e+00
<mgrwt>
<rscale>  2 0.23238649E+03</rscale>
<asrwt>0</asrwt>
<pdfrwt beam="1">  1       21 0.12560775E-01 0.23682278E+03</pdfrwt>
<pdfrwt beam="2">  1       21 0.12244065E+00 0.23682278E+03</pdfrwt>
<totfact> 0.26486470E+04</totfact>
</mgrwt>
</event>
<event>
14      3 +1.4674046e+01 1.74966800e+02 7.54677100e-03 1.17291700e-01
       21 -1    0    0  501  502 +0.0000000000e+00 +0.0000000000e+00 +4.7096095421e+02 4.7096095421e+02 0.0000000000e+00 0.0000e+00 1.0000e+00
       21 -1    0    0  505  503 -0.0000000000e+00 -0.0000000000e+00 -1.2907647335e+02 1.2907647335e+02 0.0000000000e+00 0.0000e+00 1.0000e+00
       -6  2    1    2    0  503 -2.4194786557e+01 +4.6656299356e+00 +4.7453500144e+01 1.8177882399e+02 1.7373701499e+02 0.0000e+00 0.0000e+00
      -24  2    3    3    0    0 +5.0954485836e+01 +6.5767995556e+00 +1.0418972450e+00 9.3307401520e+01 7.7881780343e+01 0.0000e+00 0.0000e+00
        6  2    1    2  501    0 -1.1678226036e+00 +3.9475213530e+01 +1.3116673057e+02 2.2076562633e+02 1.7312739317e+02 0.0000e+00 0.0000e+00
       24  2    5    5    0    0 +2.6017453081e+01 -4.0017151258e+01 +7.1936559503e+01 1.1786577969e+02 8.0244583424e+01 0.0000e+00 0.0000e+00
        5  1    5    5  501    0 -2.7185275685e+01 +7.9492364788e+01 +5.9230171065e+01 1.0289984664e+02 4.7000000000e+00 0.0000e+00 -1.0000e+00
      -13  1    6    6    0    0 +5.0517253924e+01 -5.3342618744e+00 +4.1969991364e+01 6.5893303672e+01 0.0000000000e+00 0.0000e+00 1.0000e+00
       14  1    6    6    0    0 -2.4499800842e+01 -3.4682889384e+01 +2.9966568138e+01 5.1972476016e+01 0.0000000000e+00 0.0000e+00 -1.0000e+00
       -5  1    3    3    0  503 -7.5149272393e+01 -1.9111696200e+00 +4.6411602899e+01 8.8471422471e+01 4.7000000000e+00 0.0000e+00 1.0000e+00
       13  1    4    4    0    0 +1.4386498730e+01 -2.5731069071e+01 -2.4408746812e+01 3.8273309004e+01 0.0000000000e+00 0.0000e+00 -1.0000e+00
      -14  1    4    4    0    0 +3.6567987106e+01 +3.2307868626e+01 +2.5450644057e+01 5.5034092516e+01 0.0000000000e+00 0.0000e+00 1.0000e+00
       21  1    1    2  504  502 +8.9833413190e+00 -2.1063887167e+01 +1.6734223896e+02 1.6890178420e+02 0.0000000000e+00 0.0000e+00 1.0000e+00
       21  1    1    2  505  504 +1.6379267841e+01 -2.3076956299e+01 -4.0779888162e+00 2.8591193046e+01 0.0000000000e+00 0.0000e+00 -1.0000e+00
<mgrwt>
<rscale>  4 0.17481529E+03</rscale>
<asrwt>0</asrwt>
<pdfrwt beam="1">  1       21 0.72455531E-01 0.17496682E+03</pdfrwt>
<pdfrwt beam="2">  1       21 0.19857919E-01 0.17496682E+03</pdfrwt>
<totfact> 0.40527853E+04</totfact>
</mgrwt>
</event>
<event>
13      2 +1.4674046e+01 2.54889200e+02 7.54677100e-03 1.11026900e-01
       21 -1    0    0  503  502 +0.0000000000e+00 +0.0000000000e+00 +8.2177539789e+02 8.2177539789e+02 0.0000000000e+00 0.0000e+00 -1.0000e+00
       21 -1    0    0  501  503 -0.0000000000e+00 -0.0000000000e+00 -2.7120664524e+02 2.7120664524e+02 0.0000000000e+00 0.0000e+00 -1.0000e+00
        6  2    1    2  501    0 -2.1994356894e+02 -5.9240169563e+01 +3.1289701826e+02 4.2393958122e+02 1.7301922808e+02 0.0000e+00 0.0000e+00
       24  2    3    3    0    0 -3.0885346145e+01 -2.1820810683e+01 +1.3372973402e+02 1.6075480627e+02 8.0798598954e+01 0.0000e+00 0.0000e+00
       -6  2    1    2    0  504 +1.7989314485e+02 -2.6072611220e+01 -1.3471626362e+02 2.8491341056e+02 1.7316424346e+02 0.0000e+00 0.0000e+00
      -24  2    5    5    0    0 +1.8460735997e+02 -6.3428543627e+01 -9.9824436890e+01 2.3336518961e+02 7.9945831789e+01 0.0000e+00 0.0000e+00
        5  1    3    3  501    0 -1.8905822280e+02 -3.7419358880e+01 +1.7916728424e+02 2.6318477496e+02 4.7000000000e+00 0.0000e+00 -1.0000e+00
      -13  1    4    4    0    0 -4.1093378920e+01 -2.1391442276e+01 +2.7171769778e+01 5.3708143391e+01 0.0000000000e+00 0.0000e+00 1.0000e+00
       14  1    4    4    0    0 +1.0208032775e+01 -4.2936840660e-01 +1.0655796424e+02 1.0704666288e+02 0.0000000000e+00 0.0000e+00 -1.0000e+00
       -5  1    5    5    0  504 -4.7142151253e+00 +3.7355932407e+01 -3.4891826727e+01 5.1548220945e+01 4.7000000000e+00 0.0000e+00 1.0000e+00
       13  1    6    6    0    0 +1.0443522105e+02 -5.9417740464e+01 -9.4594606845e+01 1.5292260435e+02 0.0000000000e+00 0.0000e+00 -1.0000e+00
      -14  1    6    6    0    0 +8.0172138918e+01 -4.0108031624e+00 -5.2298300444e+00 8.0442585258e+01 0.0000000000e+00 0.0000e+00 1.0000e+00
       21  1    1    2  504  502 +4.0050424098e+01 +8.5312780782e+01 +3.7238799801e+02 3.8412905135e+02 0.0000000000e+00 0.0000e+00 -1.0000e+00
<mgrwt>
<rscale>  3 0.25486453E+03</rscale>
<asrwt>0</asrwt>
<pdfrwt beam="1">  1       21 0.12642698E+00 0.25488916E+03</pdfrwt>
<pdfrwt beam="2">  1       21 0.41724100E-01 0.25488916E+03</pdfrwt>
<totfact> 0.24390639E+03</totfact>
</mgrwt>
</event>
<event>
14      3 +1.4674046e+01 1.84047800e+02 7.54677100e-03 1.16446300e-01
       -1 -1    0    0    0  501 -0.0000000000e+00 +0.0000000000e+00 +4.9766443832e+02 4.9766443832e+02 0.0000000000e+00 0.0000e+00 -1.0000e+00
        2 -1    0    0  502    0 +0.0000000000e+00 -0.0000000000e+00 -5.5089447770e+02 5.5089447770e+02 0.0000000000e+00 0.0000e+00 -1.0000e+00
        6  2    1    2  502    0 -4.4549646993e+01 +1.8281414916e+01 -1.1346324296e+02 2.1186518528e+02 1.7231966821e+02 0.0000e+00 0.0000e+00
       24  2    3    3    0    0 +1.7539386505e+01 -3.8849855516e+01 -4.1347749712e+01 1.0077169083e+02 8.1414715586e+01 0.0000e+00 0.0000e+00
       -6  2    1    2    0  501 +4.9910316883e+01 +3.6909152450e+01 +2.7628552255e+02 3.3269619153e+02 1.7464174937e+02 0.0000e+00 0.0000e+00
      -24  2    5    5    0    0 +2.4287677693e+01 +4.7993288131e+01 +5.9050277126e+01 1.1362401266e+02 8.0809863448e+01 0.0000e+00 0.0000e+00
        5  1    3    3  502    0 -6.2089033498e+01 +5.7131270432e+01 -7.2115493248e+01 1.1109349445e+02 4.7000000000e+00 0.0000e+00 -1.0000e+00
      -13  1    4    4    0    0 +4.3485604003e+01 -2.6248140129e+01 -4.9368961373e+01 7.0832598165e+01 0.0000000000e+00 0.0000e+00 1.0000e+00
       14  1    4    4    0    0 -2.5946217498e+01 -1.2601715387e+01 +8.0212116612e+00 2.9939092666e+01 0.0000000000e+00 0.0000e+00 -1.0000e+00
       -5  1    5    5    0  501 +2.5622639191e+01 -1.1084135680e+01 +2.1723524542e+02 2.1907217887e+02 4.7000000000e+00 0.0000e+00 1.0000e+00
       13  1    6    6    0    0 -6.7222750696e+00 -2.0640571755e+01 +1.4791528514e+01 2.6268069976e+01 0.0000000000e+00 0.0000e+00 -1.0000e+00
      -14  1    6    6    0    0 +3.1009952762e+01 +6.8633859886e+01 +4.4258748612e+01 8.7355942682e+01 0.0000000000e+00 0.0000e+00 1.0000e+00
        2  1    1    2  503    0 -1.7175973287e+01 -2.7845329104e+01 -3.5772956677e+02 3.5922252066e+02 0.0000000000e+00 0.0000e+00 -1.0000e+00
       -1  1    1    2    0  503 +1.1815303397e+01 -2.7345238263e+01 +1.4167724780e+02 1.4477501855e+02 0.0000000000e+00 0.0000e+00 -1.0000e+00
<mgrwt>
<rscale>  4 0.18349479E+03</rscale>
<asrwt>0</asrwt>
<pdfrwt beam="2">  1        2 0.84752996E-01 0.18404776E+03</pdfrwt>
<pdfrwt beam="1">  1       -1 0.76563760E-01 0.18404776E+03</pdfrwt>
<totfact> 0.11685022E+02</totfact>
</mgrwt>
</event>
<event>
12      1 +1.4674046e+01 1.83760200e+02 7.54677100e-03 1.16421300e-01
       -1 -1    0    0    0  501 -0.0000000000e+00 +0.0000000000e+00 +4.3475905779e+01 4.3475905779e+01 0.0000000000e+00 0.0000e+00 -1.0000e+00
        1 -1    0    0  502    0 +0.0000000000e+00 -0.0000000000e+00 -1.0949266888e+03 1.0949266888e+03 0.0000000000e+00 0.0000e+00 1.0000e+00
        6  2    1    2  502    0 +5.1859839994e+01 +3.4894281069e+01 -2.1873345389e+02 2.8563660855e+02 1.7273359383e+02 0.0000e+00 0.0000e+00
       24  2    3    3    0    0 +5.2592476399e+01 -6.2014888578e+00 -2.2319014455e+02 2.4402710058e+02 8.3252376277e+01 0.0000e+00 0.0000e+00
       -6  2    1    2    0  501 -5.1859839994e+01 -3.4894281069e+01 -8.3271732913e+02 8.5276598603e+02 1.7287169473e+02 0.0000e+00 0.0000e+00
      -24  2    5    5    0    0 +1.8719979760e+01 +2.9900178147e+00 -2.2472438744e+02 2.3950075939e+02 8.0623728453e+01 0.0000e+00 0.0000e+00
        5  1    3    3  502    0 -7.3263640512e-01 +4.1095769927e+01 +4.4566906562e+00 4.1609507971e+01 4.7000000000e+00 0.0000e+00 -1.0000e+00
      -13  1    4    4    0    0 +6.5959434761e+01 +1.7298918243e+01 -1.2748314402e+02 1.4457472675e+02 0.0000000000e+00 0.0000e+00 1.0000e+00
       14  1    4    4    0    0 -1.3366958361e+01 -2.3500407100e+01 -9.5707000524e+01 9.9452373823e+01 0.0000000000e+00 0.0000e+00 -1.0000e+00
       -5  1    5    5    0  501 -7.0579819754e+01 -3.7884298884e+01 -6.0799294169e+02 6.1326522664e+02 4.7000000000e+00 0.0000e+00 1.0000e+00
       13  1    6    6    0    0 -1.3185615625e+01 -3.2442457783e+01 -8.8779708895e+01 9.5436943780e+01 0.0000000000e+00 0.0000e+00 -1.0000e+00
      -14  1    6    6    0    0 +3.1905595385e+01 +3.5432475598e+01 -1.3594467854e+02 1.4406381561e+02 0.0000000000e+00 0.0000e+00 1.0000e+00
<mgrwt>
<rscale>  2 0.18376018E+03</rscale>
<asrwt>0</asrwt>
<pdfrwt beam="2">  1        1 0.16845025E+00 0.18376018E+03</pdfrwt>
<pdfrwt beam="1">  1       -1 0.66886015E-02 0.18376018E+03</pdfrwt>
<totfact> 0.15409464E+03</totfact>
</mgrwt>
</event>
<event>
13      2 +1.4674046e+01 2.24107800e+02 7.54677100e-03 1.13093400e-01
       21 -1    0    0  501  502 +0.0000000000e+00 +0.0000000000e+00 +8.4679343265e+02 8.4679343265e+02 0.0000000000e+00 0.0000e+00 -1.0000e+00
       21 -1    0    0  504  503 -0.0000000000e+00 -0.0000000000e+00 -9.7618337589e+01 9.7618337589e+01 0.0000000000e+00 0.0000e+00 -1.0000e+00
       -6  2    1    2    0  503 -1.4109919195e+01 +1.2722140205e+02 +1.4537570815e+02 2.5959078864e+02 1.7282623085e+02 0.0000e+00 0.0000e+00
      -24  2    3    3    0    0 +2.3570254954e+01 +1.3632164610e+02 +7.1072089995e+01 1.7565195594e+02 8.1628546083e+01 0.0000e+00 0.0000e+00
        6  2    1    2  501    0 -3.1962039959e+01 -1.8124689268e+02 +4.7423631053e+02 5.3707806359e+02 1.7228104964e+02 0.0000e+00 0.0000e+00
       24  2    5    5    0    0 -5.2577594368e+01 -1.1491058290e+02 +1.7726994545e+02 2.3205901654e+02 8.0361110644e+01 0.0000e+00 0.0000e+00
        5  1    5    5  501    0 +2.0615554410e+01 -6.6336309776e+01 +2.9696636508e+02 3.0501904706e+02 4.7000000000e+00 0.0000e+00 -1.0000e+00
      -13  1    6    6    0    0 -3.7368962597e+01 -3.7730773164e+00 +4.6258452257e+01 5.9586239043e+01 0.0000000000e+00 0.0000e+00 1.0000e+00
       14  1    6    6    0    0 -1.5208631771e+01 -1.1113750558e+02 +1.3101149319e+02 1.7247277749e+02 0.0000000000e+00 0.0000e+00 -1.0000e+00
       -5  1    3    3    0  503 -3.7680174149e+01 -9.1002440460e+00 +7.4303618152e+01 8.3938832707e+01 4.7000000000e+00 0.0000e+00 1.0000e+00
       13  1    4    4    0    0 +3.9442286576e+01 +1.2795295305e+02 +7.9617968233e+01 1.5577763970e+02 0.0000000000e+00 0.0000e+00 -1.0000e+00
      -14  1    4    4    0    0 -1.5872031622e+01 +8.3686930445e+00 -8.5458782371e+00 1.9874316238e+01 0.0000000000e+00 0.0000e+00 1.0000e+00
       21  1    1    2  504  502 +4.6071959154e+01 +5.4025490627e+01 +1.2956307638e+02 1.4774291800e+02 0.0000000000e+00 0.0000e+00 1.0000e+00
<mgrwt>
<rscale>  3 0.22400268E+03</rscale>
<asrwt>0</asrwt>
<pdfrwt beam="1">  1       21 0.13027591E+00 0.22410779E+03</pdfrwt>
<pdfrwt beam="2">  1       21 0.15018206E-01 0.22410779E+03</pdfrwt>
<totfact> 0.16490554E+04</totfact>
</mgrwt>
</event>
<event>
14      3 +1.4674046e+01 2.61428400e+02 7.54677100e-03 1.10628800e-01
       21 -1    0    0  504  503 +0.0000000000e+00 +0.0000000000e+00 +2.0846142116e+02 2.0846142116e+02 0.0000000000e+00 0.0000e+00 1.0000e+00
       21 -1    0    0  501  504 -0.0000000000e+00 -0.0000000000e+00 -6.0170079443e+02 6.0170079443e+02 0.0000000000e+00 0.0000e+00 1.0000e+00
        6  2    1    2  501    0 +1.6908956456e+02 +3.1949375352e+01 -2.8022693731e+02 3.7177664076e+02 1.7343209273e+02 0.0000e+00 0.0000e+00
       24  2    3    3    0    0 +7.1325904878e+01 +2.2710646059e+01 -2.4291887644e+02 2.6662404364e+02 8.0471373599e+01 0.0000e+00 0.0000e+00
       -6  2    1    2    0  502 -1.9872203734e+02 -1.3390994131e+02 -1.0185009783e+02 3.1431982880e+02 1.7607155319e+02 0.0000e+00 0.0000e+00
      -24  2    5    5    0    0 -1.1670102562e+02 -1.3705789284e+02 -1.1947761703e+02 2.3023549378e+02 7.9558068442e+01 0.0000e+00 0.0000e+00
        5  1    3    3  501    0 +9.7763659680e+01 +9.2387292929e+00 -3.7308060877e+01 1.0515259711e+02 4.7000000000e+00 0.0000e+00 -1.0000e+00
      -13  1    4    4    0    0 +2.5150930672e+01 +4.9038586507e+01 -1.0066533623e+02 1.1476437687e+02 0.0000000000e+00 0.0000e+00 1.0000e+00
       14  1    4    4    0    0 +4.6174974207e+01 -2.6327940449e+01 -1.4225354020e+02 1.5185966677e+02 0.0000000000e+00 0.0000e+00 -1.0000e+00
       -5  1    5    5    0  502 -8.2021011719e+01 +3.1479515287e+00 +1.7627519202e+01 8.4084335018e+01 4.7000000000e+00 0.0000e+00 1.0000e+00
       13  1    6    6    0    0 -1.1707819273e+02 -9.3863295743e+01 -1.0987644583e+02 1.8598509308e+02 0.0000000000e+00 0.0000e+00 -1.0000e+00
      -14  1    6    6    0    0 +3.7716711211e-01 -4.3194597099e+01 -9.6011712043e+00 4.4250400699e+01 0.0000000000e+00 0.0000e+00 1.0000e+00
        2  1    1    2  502    0 +7.1111016859e+00 +2.3980455891e+01 -3.1662008623e+01 4.0349880074e+01 0.0000000000e+00 0.0000e+00 -1.0000e+00
       -2  1    1    2    0  503 +2.2521371092e+01 +7.7980110071e+01 +2.0499670496e+01 8.3715865958e+01 0.0000000000e+00 0.0000e+00 1.0000e+00
<mgrwt>
<rscale>  4 0.26142840E+03</rscale>
<asrwt>0</asrwt>
<pdfrwt beam="1">  1       21 0.32070988E-01 0.26142840E+03</pdfrwt>
<pdfrwt beam="2">  1       21 0.92569353E-01 0.26142840E+03</pdfrwt>
<totfact> 0.88119442E+03</totfact>
</mgrwt>
</event>
<event>
13      2 +1.4674046e+01 4.04172900e+02 7.54677100e-03 1.04249000e-01
       21 -1    0    0  503  502 +0.0000000000e+00 +0.0000000000e+00 +6.1382118563e+02 6.1382118563e+02 0.0000000000e+00 0.0000e+00 -1.0000e+00
       21 -1    0    0  504  503 -0.0000000000e+00 -0.0000000000e+00 -1.1477658050e+03 1.1477658050e+03 0.0000000000e+00 0.0000e+00 1.0000e+00
        6  2    1    2  501    0 -2.5473370271e+02 -2.6607644130e+02 +4.5546848252e+02 6.1174361082e+02 1.7633143482e+02 0.0000e+00 0.0000e+00
       24  2    3    3    0    0 -5.0261046321e+01 -1.3400847888e+02 +1.9847926126e+02 2.5774281457e+02 8.0949960595e+01 0.0000e+00 0.0000e+00
       -6  2    1    2    0  502 +2.2871000534e+02 +2.4734122014e+02 -3.6881806125e+02 5.2842045957e+02 1.7238176836e+02 0.0000e+00 0.0000e+00
      -24  2    5    5    0    0 +1.9587494810e+02 +1.8346331249e+02 -1.9854140980e+02 3.4355630377e+02 8.1157009115e+01 0.0000e+00 0.0000e+00
        5  1    3    3  501    0 -2.0447265639e+02 -1.3206796242e+02 +2.5698922125e+02 3.5400079625e+02 4.7000000000e+00 0.0000e+00 -1.0000e+00
      -13  1    4    4    0    0 -7.5239693973e+00 -5.0523852538e+01 +1.3540180680e+02 1.4471668555e+02 0.0000000000e+00 0.0000e+00 1.0000e+00
       14  1    4    4    0    0 -4.2737076924e+01 -8.3484626346e+01 +6.3077454460e+01 1.1302612902e+02 0.0000000000e+00 0.0000e+00 -1.0000e+00
       -5  1    5    5    0  502 +3.2835057234e+01 +6.3877907649e+01 -1.7027665146e+02 1.8486415580e+02 4.7000000000e+00 0.0000e+00 1.0000e+00
       13  1    6    6    0    0 +1.4010896978e+02 +1.6091779505e+02 -1.8382263388e+02 2.8163064625e+02 0.0000000000e+00 0.0000e+00 -1.0000e+00
      -14  1    6    6    0    0 +5.5765978321e+01 +2.2545517435e+01 -1.4718775915e+01 6.1925657517e+01 0.0000000000e+00 0.0000e+00 1.0000e+00
       21  1    1    2  504  501 +2.6023697372e+01 +1.8735221163e+01 -6.2059504064e+02 6.2142292024e+02 0.0000000000e+00 0.0000e+00 1.0000e+00
<mgrwt>
<rscale>  3 0.40374535E+03</rscale>
<asrwt>0</asrwt>
<pdfrwt beam="1">  1       21 0.94434030E-01 0.40417289E+03</pdfrwt>
<pdfrwt beam="2">  1       21 0.17657935E+00 0.40417289E+03</pdfrwt>
<totfact> 0.14941862E+02</totfact>
</mgrwt>
</event>
<event>
12      1 +1.4674046e+01 1.92819000e+02 7.54677100e-03 1.15615900e-01
       21 -1    0    0  503  502 +0.0000000000e+00 +0.0000000000e+00 +1.6909664392e+02 1.6909664392e+02 0.0000000000e+00 0.0000e+00 -1.0000e+00
       21 -1    0    0  501  503 -0.0000000000e+00 -0.0000000000e+00 -3.4498312739e+02 3.4498312739e+02 0.0000000000e+00 0.0000e+00 -1.0000e+00
        6  2    1    2  501    0 +5.8972747480e+01 +5.9087930316e+01 -2.4356059650e+02 3.1064597051e+02 1.7381020214e+02 0.0000e+00 0.0000e+00
       24  2    3    3    0    0 +4.6872547367e+01 -3.2718990670e+01 -1.4461485600e+02 1.7504628339e+02 8.0375224442e+01 0.0000e+00 0.0000e+00
       -6  2    1    2    0  502 -5.8972747480e+01 -5.9087930316e+01 +6.7674113032e+01 2.0343380080e+02 1.7273203894e+02 0.0000e+00 0.0000e+00
      -24  2    5    5    0    0 -6.0859110494e+00 +1.8900933865e+01 +7.1149525106e+01 1.0902273739e+02 8.0183656264e+01 0.0000e+00 0.0000e+00
        5  1    3    3  501    0 +1.2100200114e+01 +9.1806920986e+01 -9.8945740501e+01 1.3559968712e+02 4.7000000000e+00 0.0000e+00 -1.0000e+00
      -13  1    4    4    0    0 -2.0500123990e+01 -1.6769947670e+01 -2.2876438766e+01 3.4997395318e+01 0.0000000000e+00 0.0000e+00 1.0000e+00
       14  1    4    4    0    0 +6.7372671356e+01 -1.5949043001e+01 -1.2173841723e+02 1.4004888807e+02 0.0000000000e+00 0.0000e+00 -1.0000e+00
       -5  1    5    5    0  502 -5.2886836431e+01 -7.7988864181e+01 -3.4754120736e+00 9.4411063403e+01 4.7000000000e+00 0.0000e+00 1.0000e+00
       13  1    6    6    0    0 -3.9939462190e+01 -6.2510794466e+00 +3.5452406089e+01 5.3769040644e+01 0.0000000000e+00 0.0000e+00 -1.0000e+00
      -14  1    6    6    0    0 +3.3853551140e+01 +2.5152013311e+01 +3.5697119017e+01 5.5253696750e+01 0.0000000000e+00 0.0000e+00 1.0000e+00
<mgrwt>
<rscale>  2 0.19257568E+03</rscale>
<asrwt>0</asrwt>
<pdfrwt beam="1">  1       21 0.26014869E-01 0.19281897E+03</pdfrwt>
<pdfrwt beam="2">  1       21 0.53074327E-01 0.19281897E+03</pdfrwt>
<totfact> 0.47200782E+04</totfact>
</mgrwt>
</event>
<event>
12      1 +1.4674046e+01 1.79556400e+02 7.54677100e-03 1.16823300e-01
        1 -1    0    0  502    0 +0.0000000000e+00 +0.0000000000e+00 +1.2250434497e+02 1.2250434497e+02 0.0000000000e+00 0.0000e+00 1.0000e+00
       -1 -1    0    0    0  501 -0.0000000000e+00 -0.0000000000e+00 -2.9051918046e+02 2.9051918046e+02 0.0000000000e+00 0.0000e+00 -1.0000e+00
        6  2    1    2  502    0 -3.6515392933e+01 -4.8213650088e+00 -1.4852010346e+02 2.3532041173e+02 1.7877599270e+02 0.0000e+00 0.0000e+00
       24  2    3    3    0    0 -8.5486278688e+01 +1.1053760923e+01 -1.3546507550e+02 1.8200351919e+02 8.5699503183e+01 0.0000e+00 0.0000e+00
       -6  2    1    2    0  501 +3.6515392933e+01 +4.8213650088e+00 -1.9494732027e+01 1.7770311369e+02 1.7274759783e+02 0.0000e+00 0.0000e+00
      -24  2    5    5    0    0 -2.1946151560e+01 +5.4443477472e+01 -2.1244925612e+01 1.0085742801e+02 7.9215832468e+01 0.0000e+00 0.0000e+00
        5  1    3    3  502    0 +4.8970885755e+01 -1.5875125931e+01 -1.3055027962e+01 5.3316892539e+01 4.7000000000e+00 0.0000e+00 -1.0000e+00
      -13  1    4    4    0    0 -4.6625615761e+01 +1.3042055862e+01 -8.4314225606e+00 4.9143994064e+01 0.0000000000e+00 0.0000e+00 1.0000e+00
       14  1    4    4    0    0 -3.8860662927e+01 -1.9882949396e+00 -1.2703365294e+02 1.3285952513e+02 0.0000000000e+00 0.0000e+00 -1.0000e+00
       -5  1    5    5    0  501 +5.8461544494e+01 -4.9622112463e+01 +1.7501935847e+00 7.6845685679e+01 4.7000000000e+00 0.0000e+00 1.0000e+00
       13  1    6    6    0    0 -3.0601319394e+01 -5.3674623673e+00 +1.0241604553e+01 3.2713007577e+01 0.0000000000e+00 0.0000e+00 -1.0000e+00
      -14  1    6    6    0    0 +8.6551678340e+00 +5.9810939839e+01 -3.1486530165e+01 6.8144420435e+01 0.0000000000e+00 0.0000e+00 1.0000e+00
<mgrwt>
<rscale>  2 0.17955642E+03</rscale>
<asrwt>0</asrwt>
<pdfrwt beam="1">  1        1 0.18846822E-01 0.17955642E+03</pdfrwt>
<pdfrwt beam="2">  1       -1 0.44695258E-01 0.17955642E+03</pdfrwt>
<totfact> 0.13795109E+03</totfact>
</mgrwt>
</event>
<event>
13      2 +1.4674046e+01 2.59048000e+02 7.54677100e-03 1.10772500e-01
       -3 -1    0    0    0  501 -0.0000000000e+00 +0.0000000000e+00 +2.9907244938e+02 2.9907244938e+02 0.0000000000e+00 0.0000e+00 -1.0000e+00
       21 -1    0    0  502  503 +0.0000000000e+00 -0.0000000000e+00 -1.6966375995e+03 1.6966375995e+03 0.0000000000e+00 0.0000e+00 -1.0000e+00
       -6  2    1    2    0  501 +1.1583781117e+02 +8.7856460283e+01 -6.0870901682e+02 6.4931693918e+02 1.7305682372e+02 0.0000e+00 0.0000e+00
      -24  2    3    3    0    0 +1.0523875677e+02 +2.4386686120e+01 -5.3281253412e+02 5.4970208952e+02 8.1322102282e+01 0.0000e+00 0.0000e+00
        6  2    1    2  502    0 -2.2479047884e+02 -9.7835113329e+01 -1.0346892950e+03 1.0773128229e+03 1.7296968638e+02 0.0000e+00 0.0000e+00
       24  2    5    5    0    0 -1.6970551870e+02 -1.3625891947e+02 -7.6533111645e+02 7.9966797770e+02 7.9816668274e+01 0.0000e+00 0.0000e+00
        5  1    5    5  502    0 -5.5084960135e+01 +3.8423806145e+01 -2.6935817857e+02 2.7764484521e+02 4.7000000000e+00 0.0000e+00 -1.0000e+00
      -13  1    6    6    0    0 -4.3402973581e+01 -5.2881771789e+01 -3.7174989400e+02 3.7799243854e+02 0.0000000000e+00 0.0000e+00 1.0000e+00
       14  1    6    6    0    0 -1.2630254512e+02 -8.3377147686e+01 -3.9358122245e+02 4.2167553916e+02 0.0000000000e+00 0.0000e+00 -1.0000e+00
       -5  1    3    3    0  501 +1.0599054397e+01 +6.3469774163e+01 -7.5896482698e+01 9.9614849658e+01 4.7000000000e+00 0.0000e+00 1.0000e+00
       13  1    4    4    0    0 +9.6962807735e+01 +4.0240117297e+01 -3.3455391027e+02 3.5063852042e+02 0.0000000000e+00 0.0000e+00 -1.0000e+00
      -14  1    4    4    0    0 +8.2759490372e+00 -1.5853431177e+01 -1.9825862385e+02 1.9906356910e+02 0.0000000000e+00 0.0000e+00 1.0000e+00
       -3  1    1    2    0  503 +1.0895266767e+02 +9.9786530460e+00 +2.4583316175e+02 2.6908028676e+02 0.0000000000e+00 0.0000e+00 -1.0000e+00
<mgrwt>
<rscale>  3 0.25903343E+03</rscale>
<asrwt>0</asrwt>
<pdfrwt beam="2">  1       21 0.26102117E+00 0.25904798E+03</pdfrwt>
<pdfrwt beam="1">  1       -3 0.46011147E-01 0.25904798E+03</pdfrwt>
<totfact> 0.12644314E+01</totfact>
</mgrwt>
</event>
<event>
13      2 +1.4674046e+01 3.74426900e+02 7.54677100e-03 1.05315300e-01
       -3 -1    0    0    0  501 -0.0000000000e+00 +0.0000000000e+00 +7.8660169885e+02 7.8660169885e+02 0.0000000000e+00 0.0000e+00 -1.0000e+00
       21 -1    0    0  501  503 +0.0000000000e+00 -0.0000000000e+00 -5.0688157481e+02 5.0688157481e+02 0.0000000000e+00 0.0000e+00 1.0000e+00
        6  2    1    2  502    0 -9.6816980691e+01 +2.8677321507e+02 +4.2401398325e+02 5.4961344910e+02 1.7514188764e+02 0.0000e+00 0.0000e+00
       24  2    3    3    0    0 +1.8374214131e+01 +1.0017787107e+02 +1.4959348671e+02 1.9830797990e+02 8.1084067667e+01 0.0000e+00 0.0000e+00
       -6  2    1    2    0  503 +1.1214990321e+02 -3.1631178144e+02 -3.6254338941e+02 5.2309735605e+02 1.7193717118e+02 0.0000e+00 0.0000e+00
      -24  2    5    5    0    0 +3.2359259126e+01 -7.5456140656e+01 -7.2841489875e+01 1.3796456444e+02 8.3591791339e+01 0.0000e+00 0.0000e+00
        5  1    3    3  502    0 -1.1519119482e+02 +1.8659534400e+02 +2.7442049654e+02 3.5130546920e+02 4.7000000000e+00 0.0000e+00 -1.0000e+00
      -13  1    4    4    0    0 +3.6711977096e+01 +8.7340894343e+01 +1.4817965931e+02 1.7587897123e+02 0.0000000000e+00 0.0000e+00 1.0000e+00
       14  1    4    4    0    0 -1.8337762966e+01 +1.2836976731e+01 +1.4138273979e+00 2.2429008674e+01 0.0000000000e+00 0.0000e+00 -1.0000e+00
       -5  1    5    5    0  503 +7.9790644085e+01 -2.4085564079e+02 -2.8970189954e+02 3.8513279161e+02 4.7000000000e+00 0.0000e+00 1.0000e+00
       13  1    6    6    0    0 +1.7179268417e+01 +1.0187077147e+01 -4.0520440760e+01 4.5175324277e+01 0.0000000000e+00 0.0000e+00 -1.0000e+00
      -14  1    6    6    0    0 +1.5179990709e+01 -8.5643217803e+01 -3.2321049115e+01 9.2789240160e+01 0.0000000000e+00 0.0000e+00 1.0000e+00
       -3  1    1    2    0  502 -1.5332922520e+01 +2.9538566369e+01 +2.1824953021e+02 2.2077246851e+02 0.0000000000e+00 0.0000e+00 -1.0000e+00
<mgrwt>
<rscale>  3 0.37405425E+03</rscale>
<asrwt>0</asrwt>
<pdfrwt beam="2">  1       21 0.77981781E-01 0.37442687E+03</pdfrwt>
<pdfrwt beam="1">  1       -3 0.12101565E+00 0.37442687E+03</pdfrwt>
<totfact> 0.39136431E+01</totfact>
</mgrwt>
</event>
<event>
13      2 +1.4674046e+01 2.06084900e+02 7.54677100e-03 1.14476300e-01
       21 -1    0    0  501  503 +0.0000000000e+00 +0.0000000000e+00 +8.1502041401e+01 8.1502041401e+01 0.0000000000e+00 0.0000e+00 1.0000e+00
        2 -1    0    0  503    0 -0.0000000000e+00 -0.0000000000e+00 -1.3741088073e+03 1.3741088073e+03 0.0000000000e+00 0.0000e+00 1.0000e+00
        6  2    1    2  501    0 -1.1312915674e+02 -7.9402534324e+00 -1.4107406808e+02 2.5061673811e+02 1.7333667531e+02 0.0000e+00 0.0000e+00
       24  2    3    3    0    0 +1.3732993308e+00 +3.1573900725e+01 -5.0251020989e+01 9.9146950005e+01 7.9411305409e+01 0.0000e+00 0.0000e+00
       -6  2    1    2    0  502 +1.0747541241e+02 -3.5589211692e+01 -3.8325250229e+02 4.3546098070e+02 1.7299199096e+02 0.0000e+00 0.0000e+00
      -24  2    5    5    0    0 +2.1054980207e+01 -6.7950367914e+01 -2.6093211815e+02 2.8216355113e+02 8.0437146985e+01 0.0000e+00 0.0000e+00
        5  1    3    3  501    0 -1.1450245607e+02 -3.9514154158e+01 -9.0823047089e+01 1.5146978810e+02 4.7000000000e+00 0.0000e+00 -1.0000e+00
      -13  1    4    4    0    0 +1.5658445468e+01 +4.9977012485e+01 -5.4366890655e+01 7.5489386611e+01 0.0000000000e+00 0.0000e+00 1.0000e+00
       14  1    4    4    0    0 -1.4285146137e+01 -1.8403111760e+01 +4.1158696662e+00 2.3657563394e+01 0.0000000000e+00 0.0000e+00 -1.0000e+00
       -5  1    5    5    0  502 +8.6420432205e+01 +3.2361156222e+01 -1.2232038414e+02 1.5329742956e+02 4.7000000000e+00 0.0000e+00 1.0000e+00
       13  1    6    6    0    0 +3.2126625421e+01 -1.3188058117e+00 -4.1067331753e+01 5.2157310581e+01 0.0000000000e+00 0.0000e+00 -1.0000e+00
      -14  1    6    6    0    0 -1.1071645214e+01 -6.6631562102e+01 -2.1986478640e+02 2.3000624055e+02 0.0000000000e+00 0.0000e+00 1.0000e+00
        2  1    1    2  502    0 +5.6537443317e+00 +4.3529465124e+01 -7.6828019550e+02 7.6953312986e+02 0.0000000000e+00 0.0000e+00 1.0000e+00
<mgrwt>
<rscale>  3 0.20601238E+03</rscale>
<asrwt>0</asrwt>
<pdfrwt beam="1">  1       21 0.12538776E-01 0.20608487E+03</pdfrwt>
<pdfrwt beam="2">  1        2 0.21140136E+00 0.20608487E+03</pdfrwt>
<totfact> 0.11060884E+04</totfact>
</mgrwt>
</event>
<event>
12      3 +1.4674046e+01 4.73532500e+02 7.54677100e-03 1.03940500e-01
        2 -1    0    0  504    0 -0.0000000000e+00 +0.0000000000e+00 +2.8929600544e+03 2.8929600544e+03 0.0000000000e+00 0.0000e+00 1.0000e+00
       21 -1    0    0  501  503 +0.0000000000e+00 -0.0000000000e+00 -4.8877818579e+02 4.8877818579e+02 0.0000000000e+00 0.0000e+00 -1.0000e+00
       24  2    1    2    0    0 -9.5008224117e+01 -2.8027089189e+01 +2.3730109778e+02 2.6838230620e+02 7.6845109770e+01 0.0000e+00 0.0000e+00
       -6  2    1    2    0  502 -2.5661969605e+02 +3.0253850194e+02 +9.6835797271e+02 1.0611313622e+03 1.7578222578e+02 0.0000e+00 0.0000e+00
        5  1    1    2  501    0 -7.2809656147e+01 -2.8841558573e+01 +8.1114544490e+02 8.1493073590e+02 4.7000000000e+00 0.0000e+00 -1.0000e+00
      -13  1    3    3    0    0 -5.0101821649e+01 +1.4016644521e+01 +1.6724846663e+02 1.7515338548e+02 0.0000000000e+00 0.0000e+00 1.0000e+00
       14  1    3    3    0    0 -4.4906402468e+01 -4.2043733710e+01 +7.0052631145e+01 9.3228920713e+01 0.0000000000e+00 0.0000e+00 -1.0000e+00
       -5  1    4    4    0  502 -1.4488917119e+02 +1.1100049644e+02 +2.5557029314e+02 3.1408955231e+02 4.7000000000e+00 0.0000e+00 1.0000e+00
       13  1    4    4    0    0 -1.7218488237e+01 +5.1943778927e+01 +1.5811679767e+02 1.6731872045e+02 0.0000000000e+00 0.0000e+00 -1.0000e+00
      -14  1    4    4    0    0 -9.4512036626e+01 +1.3959422658e+02 +5.5467088190e+02 5.7972308941e+02 0.0000000000e+00 0.0000e+00 1.0000e+00
       21  1    1    2  504  503 -2.8563356368e+01 +4.1301153583e+01 -3.3438013005e+02 3.3812974135e+02 0.0000000000e+00 0.0000e+00 -1.0000e+00
        2  1    1    2  502    0 +4.5300093268e+02 -2.8697100776e+02 +7.2175748327e+02 8.9916409457e+02 0.0000000000e+00 0.0000e+00 1.0000e+00
<mgrwt>
<rscale>  4 0.41289176E+03</rscale>
<asrwt>0</asrwt>
<pdfrwt beam="2">  1       21 0.75196645E-01 0.47353246E+03</pdfrwt>
<pdfrwt beam="1">  1        2 0.44507077E+00 0.47353246E+03</pdfrwt>
<totfact> 0.41009604E+01</totfact>
</mgrwt>
</event>
<event>
12      1 +1.4674046e+01 2.64629800e+02 7.54677100e-03 1.10445200e-01
       21 -1    0    0  501  502 +0.0000000000e+00 +0.0000000000e+00 +5.6345609025e+01 5.6345609025e+01 0.0000000000e+00 0.0000e+00 -1.0000e+00
       21 -1    0    0  502  503 -0.0000000000e+00 -0.0000000000e+00 -1.5678002926e+03 1.5678002926e+03 0.0000000000e+00 0.0000e+00 1.0000e+00
       -6  2    1    2    0  503 -1.7207400658e+02 +9.7244246809e+01 -1.1269541484e+03 1.1576072638e+03 1.7596311356e+02 0.0000e+00 0.0000e+00
      -24  2    3    3    0    0 -1.3989365674e+02 +1.3710975673e+02 -9.4345682395e+02 9.6703393966e+02 8.1697865313e+01 0.0000e+00 0.0000e+00
        6  2    1    2  501    0 +1.7207400658e+02 -9.7244246809e+01 -3.8450053511e+02 4.6653863776e+02 1.7536171687e+02 0.0000e+00 0.0000e+00
       24  2    5    5    0    0 +1.6409232352e+02 -9.3219692891e+01 -3.9900731189e+02 4.4886264072e+02 8.1575937122e+01 0.0000e+00 0.0000e+00
        5  1    5    5  501    0 +7.9816830627e+00 -4.0245539177e+00 +1.4506776777e+01 1.7675997035e+01 4.7000000000e+00 0.0000e+00 -1.0000e+00
      -13  1    6    6    0    0 +1.0504225281e+02 -1.5776400983e+01 -1.7686539733e+02 2.0631078129e+02 0.0000000000e+00 0.0000e+00 1.0000e+00
       14  1    6    6    0    0 +5.9050070711e+01 -7.7443291908e+01 -2.2214191455e+02 2.4255185943e+02 0.0000000000e+00 0.0000e+00 -1.0000e+00
       -5  1    3    3    0  503 -3.2180349846e+01 -3.9865509920e+01 -1.8349732447e+02 1.9057332417e+02 4.7000000000e+00 0.0000e+00 1.0000e+00
       13  1    4    4    0    0 -4.8060777976e+01 +3.7588482648e+01 -1.4719967398e+02 1.5934389360e+02 0.0000000000e+00 0.0000e+00 -1.0000e+00
      -14  1    4    4    0    0 -9.1832878761e+01 +9.9521274080e+01 -7.9625714997e+02 8.0769004605e+02 0.0000000000e+00 0.0000e+00 1.0000e+00
<mgrwt>
<rscale>  2 0.26452985E+03</rscale>
<asrwt>0</asrwt>
<pdfrwt beam="1">  1       21 0.86685550E-02 0.26462979E+03</pdfrwt>
<pdfrwt beam="2">  1       21 0.24120005E+00 0.26462979E+03</pdfrwt>
<totfact> 0.73610667E+03</totfact>
</mgrwt>
</event>
<event>
14      3 +1.4674046e+01 2.79352400e+02 7.54677100e-03 1.09605500e-01
       21 -1    0    0  505  502 +0.0000000000e+00 +0.0000000000e+00 +2.4627874114e+02 2.4627874114e+02 0.0000000000e+00 0.0000e+00 -1.0000e+00
       21 -1    0    0  501  503 -0.0000000000e+00 -0.0000000000e+00 -6.7185456452e+02 6.7185456452e+02 0.0000000000e+00 0.0000e+00 1.0000e+00
        6  2    1    2  501    0 -2.3865955235e+02 -9.7145176334e+01 -1.2985249148e+02 3.3661186857e+02 1.7335026192e+02 0.0000e+00 0.0000e+00
       24  2    3    3    0    0 -1.0902874833e+02 -1.8592552899e+00 -1.0747778020e+02 1.7411180764e+02 8.2901890977e+01 0.0000e+00 0.0000e+00
       -6  2    1    2    0  504 +1.5376841481e+02 +1.3793111728e+02 -3.6452285544e+02 4.5347892590e+02 1.7348344471e+02 0.0000e+00 0.0000e+00
      -24  2    5    5    0    0 +8.6278715808e+00 +7.5916570928e+01 -1.5990521973e+02 1.9501800411e+02 8.1391502752e+01 0.0000e+00 0.0000e+00
        5  1    3    3  501    0 -1.2963080401e+02 -9.5285921044e+01 -2.2374711277e+01 1.6250006093e+02 4.7000000000e+00 0.0000e+00 -1.0000e+00
      -13  1    4    4    0    0 -3.1198648444e+01 -9.7135493504e+00 -8.7461577150e+01 9.3366140454e+01 0.0000000000e+00 0.0000e+00 1.0000e+00
       14  1    4    4    0    0 -7.7830099889e+01 +7.8542940605e+00 -2.0016203052e+01 8.0745667182e+01 0.0000000000e+00 0.0000e+00 -1.0000e+00
       -5  1    5    5    0  504 +1.4514054323e+02 +6.2014546351e+01 -2.0461763571e+02 2.5846092179e+02 4.7000000000e+00 0.0000e+00 1.0000e+00
       13  1    6    6    0    0 -9.8170929488e+00 -1.5036636583e+01 -1.7738414530e+01 2.5241376819e+01 0.0000000000e+00 0.0000e+00 -1.0000e+00
      -14  1    6    6    0    0 +1.8444964530e+01 +9.0953207511e+01 -1.4216680520e+02 1.6977662729e+02 0.0000000000e+00 0.0000e+00 1.0000e+00
       21  1    1    2  504  502 +6.7793375544e+01 -2.6971509839e+01 +2.1787138193e+01 7.6145147589e+01 0.0000000000e+00 0.0000e+00 -1.0000e+00
       21  1    1    2  505  503 +1.7097761996e+01 -1.3814431106e+01 +4.7012385357e+01 5.1897363604e+01 0.0000000000e+00 0.0000e+00 -1.0000e+00
<mgrwt>
<rscale>  4 0.27933172E+03</rscale>
<asrwt>0</asrwt>
<pdfrwt beam="1">  1       21 0.37889037E-01 0.27935239E+03</pdfrwt>
<pdfrwt beam="2">  1       21 0.10336224E+00 0.27935239E+03</pdfrwt>
<totfact> 0.48061463E+03</totfact>
</mgrwt>
</event>
<event>
12      1 +1.4674046e+01 1.87851900e+02 7.54677100e-03 1.16041300e-01
        4 -1    0    0  502    0 +0.0000000000e+00 +0.0000000000e+00 +7.0723571955e+02 7.0723571955e+02 0.0000000000e+00 0.0000e+00 -1.0000e+00
       -4 -1    0    0    0  501 -0.0000000000e+00 -0.0000000000e+00 -5.3916791610e+01 5.3916791610e+01 0.0000000000e+00 0.0000e+00 1.0000e+00
        6  2    1    2  502    0 -6.8276896497e+01 -2.4193701473e+01 +2.1950925162e+02 2.8759198804e+02 1.7110748157e+02 0.0000e+00 0.0000e+00
       24  2    3    3    0    0 +2.8476958326e+01 -2.4613699580e+01 +1.0007319344e+02 1.3381114783e+02 8.0461219699e+01 0.0000e+00 0.0000e+00
       -6  2    1    2    0  501 +6.8276896497e+01 +2.4193701473e+01 +4.3380967632e+02 4.7356052312e+02 1.7556099796e+02 0.0000e+00 0.0000e+00
      -24  2    5    5    0    0 +1.1358523997e+02 +6.9721890513e+00 +2.9183416884e+02 3.2346534931e+02 8.0699640279e+01 0.0000e+00 0.0000e+00
        5  1    3    3  502    0 -9.6753854823e+01 +4.1999810725e-01 +1.1943605818e+02 1.5378084020e+02 4.7000000000e+00 0.0000e+00 -1.0000e+00
      -13  1    4    4    0    0 +1.7383565286e+01 +1.2809175903e+00 -1.0064578408e+01 2.0127712996e+01 0.0000000000e+00 0.0000e+00 1.0000e+00
       14  1    4    4    0    0 +1.1093393039e+01 -2.5894617170e+01 +1.1013777185e+02 1.1368343483e+02 0.0000000000e+00 0.0000e+00 -1.0000e+00
       -5  1    5    5    0  501 -4.5308343473e+01 +1.7221512422e+01 +1.4197550748e+02 1.5009517381e+02 4.7000000000e+00 0.0000e+00 1.0000e+00
       13  1    6    6    0    0 +1.0228394775e+02 +2.6691701694e+01 +2.7657942400e+02 2.9609226719e+02 0.0000000000e+00 0.0000e+00 -1.0000e+00
      -14  1    6    6    0    0 +1.1301292224e+01 -1.9719512643e+01 +1.5254744839e+01 2.7373082123e+01 0.0000000000e+00 0.0000e+00 1.0000e+00
<mgrwt>
<rscale>  2 0.18785192E+03</rscale>
<asrwt>0</asrwt>
<pdfrwt beam="1">  1        4 0.10880549E+00 0.18785192E+03</pdfrwt>
<pdfrwt beam="2">  1       -4 0.82948915E-02 0.18785192E+03</pdfrwt>
<totfact> 0.12844990E+02</totfact>
</mgrwt>
</event>
<event>
13      2 +1.4674046e+01 2.06433800e+02 7.54677100e-03 1.14445100e-01
       21 -1    0    0  501  502 +0.0000000000e+00 +0.0000000000e+00 +9.2085474570e+02 9.2085474570e+02 0.0000000000e+00 0.0000e+00 -1.0000e+00
       21 -1    0    0  502  503 -0.0000000000e+00 -0.0000000000e+00 -7.1428209528e+02 7.1428209528e+02 0.0000000000e+00 0.0000e+00 -1.0000e+00
       -6  2    1    2    0  504 +3.3176046108e+01 -1.2354228977e+02 -6.4251103911e+01 2.2483045326e+02 1.7337006940e+02 0.0000e+00 0.0000e+00
      -24  2    3    3    0    0 +1.5817926148e+01 -8.2745573041e+01 -1.1050624827e+02 1.6058635000e+02 8.0494150436e+01 0.0000e+00 0.0000e+00
        6  2    1    2  501    0 -4.3887833638e+01 +1.0172397861e+02 +8.2772389346e+02 8.5287608171e+02 1.7319600802e+02 0.0000e+00 0.0000e+00
       24  2    5    5    0    0 +2.9177418881e+01 +9.5345140065e+01 +6.0386888905e+02 6.1726544166e+02 8.0106009774e+01 0.0000e+00 0.0000e+00
        5  1    5    5  501    0 -7.3065252519e+01 +6.3788385423e+00 +2.2385500441e+02 2.3561064005e+02 4.7000000000e+00 0.0000e+00 -1.0000e+00
      -13  1    6    6    0    0 +1.9413561319e+01 -9.7695541226e+00 +8.2374926636e+01 8.5193656391e+01 0.0000000000e+00 0.0000e+00 1.0000e+00
       14  1    6    6    0    0 +9.7638575620e+00 +1.0511469419e+02 +5.2149396241e+02 5.3207178527e+02 0.0000000000e+00 0.0000e+00 -1.0000e+00
       -5  1    3    3    0  504 +1.7358119960e+01 -4.0796716730e+01 +4.6255144359e+01 6.4244103264e+01 4.7000000000e+00 0.0000e+00 1.0000e+00
       13  1    4    4    0    0 +1.2730881116e+00 -4.8137081403e+01 -4.7770822350e+00 4.8390286980e+01 0.0000000000e+00 0.0000e+00 -1.0000e+00
      -14  1    4    4    0    0 +1.4544838036e+01 -3.4608491638e+01 -1.0572916604e+02 1.1219606302e+02 0.0000000000e+00 0.0000e+00 1.0000e+00
       21  1    1    2  504  503 +1.0711787530e+01 +2.1818311163e+01 -5.5690013913e+02 5.5743030601e+02 0.0000000000e+00 0.0000e+00 -1.0000e+00
<mgrwt>
<rscale>  3 0.20639726E+03</rscale>
<asrwt>0</asrwt>
<pdfrwt beam="1">  1       21 0.14166996E+00 0.20643381E+03</pdfrwt>
<pdfrwt beam="2">  1       21 0.10988955E+00 0.20643381E+03</pdfrwt>
<totfact> 0.22337841E+02</totfact>
</mgrwt>
</event>
<event>
12      1 +1.4674046e+01 1.78126400e+02 7.54677100e-03 1.16978700e-01
       21 -1    0    0  503  502 +0.0000000000e+00 +0.0000000000e+00 +1.1808084818e+03 1.1808084818e+03 0.0000000000e+00 0.0000e+00 -1.0000e+00
       21 -1    0    0  501  503 -0.0000000000e+00 -0.0000000000e+00 -3.7400371595e+01 3.7400371595e+01 0.0000000000e+00 0.0000e+00 -1.0000e+00
        6  2    1    2  501    0 +2.1452666539e+01 -3.3748509471e+01 +2.4776516278e+02 3.0515012755e+02 1.7357950819e+02 0.0000e+00 0.0000e+00
       24  2    3    3    0    0 +4.0138931209e+01 +1.9025135762e+01 +2.2858974900e+02 2.4578666562e+02 7.8643003896e+01 0.0000e+00 0.0000e+00
       -6  2    1    2    0  502 -2.1452666539e+01 +3.3748509471e+01 +8.9564294744e+02 9.1305872585e+02 1.7291838760e+02 0.0000e+00 0.0000e+00
      -24  2    5    5    0    0 +1.6000742495e+01 -3.4420528638e+01 +5.7542908354e+02 5.8350025724e+02 8.8955738771e+01 0.0000e+00 0.0000e+00
        5  1    3    3  501    0 -1.8686264670e+01 -5.2773645233e+01 +1.9175413781e+01 5.9363461928e+01 4.7000000000e+00 0.0000e+00 -1.0000e+00
      -13  1    4    4    0    0 +2.4900732073e+01 -2.6404168735e+01 +5.6518127573e+01 6.7167889119e+01 0.0000000000e+00 0.0000e+00 1.0000e+00
       14  1    4    4    0    0 +1.5238199136e+01 +4.5429304497e+01 +1.7207162143e+02 1.7861877651e+02 0.0000000000e+00 0.0000e+00 -1.0000e+00
       -5  1    5    5    0  502 -3.7453409034e+01 +6.8169038109e+01 +3.2021386390e+02 3.2955846862e+02 4.7000000000e+00 0.0000e+00 1.0000e+00
       13  1    6    6    0    0 -1.5750230688e+01 -5.1650637546e+01 +2.3321852286e+02 2.3938825688e+02 0.0000000000e+00 0.0000e+00 -1.0000e+00
      -14  1    6    6    0    0 +3.1750973184e+01 +1.7230108908e+01 +3.4221056068e+02 3.4411200036e+02 0.0000000000e+00 0.0000e+00 1.0000e+00
<mgrwt>
<rscale>  2 0.17796516E+03</rscale>
<asrwt>0</asrwt>
<pdfrwt beam="1">  1       21 0.18166281E+00 0.17812643E+03</pdfrwt>
<pdfrwt beam="2">  1       21 0.57539042E-02 0.17812643E+03</pdfrwt>
<totfact> 0.37913373E+04</totfact>
</mgrwt>
</event>
<event>
12      2 +1.4674046e+01 2.62156800e+02 7.54677100e-03 1.11047000e-01
       21 -1    0    0  501  502 +0.0000000000e+00 +0.0000000000e+00 +3.1621229289e+02 3.1621229289e+02 0.0000000000e+00 0.0000e+00 1.0000e+00
       21 -1    0    0  502  503 -0.0000000000e+00 -0.0000000000e+00 -5.3638348618e+02 5.3638348618e+02 0.0000000000e+00 0.0000e+00 1.0000e+00
        6  2    1    2  501    0 +1.5248423808e+02 +5.3356691478e+01 +6.2162031067e+01 2.4433767533e+02 1.7244825916e+02 0.0000e+00 0.0000e+00
       24  2    3    3    0    0 +4.5063924229e+01 +7.3122070347e+01 +6.7859211317e+01 1.3486465631e+02 7.8778223653e+01 0.0000e+00 0.0000e+00
      -24  2    1    2    0    0 +1.5725567495e+01 -7.1163738195e+00 -2.2412952610e+01 8.3845336516e+01 7.8928852528e+01 0.0000e+00 0.0000e+00
        5  1    3    3  501    0 +1.0742031386e+02 -1.9765378869e+01 -5.6971802495e+00 1.0947301902e+02 4.7000000000e+00 0.0000e+00 -1.0000e+00
      -13  1    4    4    0    0 -1.5121832842e+01 +2.7433435847e+00 -5.9138390590e+00 1.6467217583e+01 0.0000000000e+00 0.0000e+00 1.0000e+00
       14  1    4    4    0    0 +6.0185757071e+01 +7.0378726762e+01 +7.3773050376e+01 1.1839743872e+02 0.0000000000e+00 0.0000e+00 -1.0000e+00
       -5  1    1    2    0  504 -1.4890233312e+02 -6.6763327500e+01 +8.1060714043e+01 1.8226951492e+02 4.7000000000e+00 0.0000e+00 1.0000e+00
       13  1    5    5    0    0 +4.2362409324e+01 -1.2769658806e+01 +5.8132370104e+00 4.4625459486e+01 0.0000000000e+00 0.0000e+00 -1.0000e+00
      -14  1    5    5    0    0 -2.6636841829e+01 +5.6532849862e+00 -2.8226189621e+01 3.9219877030e+01 0.0000000000e+00 0.0000e+00 1.0000e+00
       21  1    1    2  504  503 -1.9307472462e+01 +2.0523009842e+01 -3.4098098579e+02 3.4214325230e+02 0.0000000000e+00 0.0000e+00 1.0000e+00
<mgrwt>
<rscale>  3 0.25453775E+03</rscale>
<asrwt>0</asrwt>
<pdfrwt beam="1">  1       21 0.48648045E-01 0.26215684E+03</pdfrwt>
<pdfrwt beam="2">  1       21 0.82520536E-01 0.26215684E+03</pdfrwt>
<totfact> 0.49299780E+03</totfact>
</mgrwt>
</event>
<event>
12      1 +1.4674046e+01 1.96913100e+02 7.54677100e-03 1.15247900e-01
       21 -1    0    0  503  502 +0.0000000000e+00 +0.0000000000e+00 +4.7115831973e+01 4.7115831973e+01 0.0000000000e+00 0.0000e+00 -1.0000e+00
       21 -1    0    0  501  503 -0.0000000000e+00 -0.0000000000e+00 -8.9599471023e+02 8.9599471023e+02 0.0000000000e+00 0.0000e+00 -1.0000e+00
        6  2    1    2  501    0 -9.3798141036e+01 +4.4176924361e+00 -5.6150640070e+02 5.9503294430e+02 1.7308136674e+02 0.0000e+00 0.0000e+00
       24  2    3    3    0    0 -3.7640228216e+01 -5.2654654666e+01 -3.6844564583e+02 3.8597431844e+02 9.5050939646e+01 0.0000e+00 0.0000e+00
       -6  2    1    2    0  502 +9.3798141036e+01 -4.4176924361e+00 -2.8737247755e+02 3.4807759790e+02 1.7250352470e+02 0.0000e+00 0.0000e+00
      -24  2    5    5    0    0 -2.1052346756e+01 -6.1605639357e+00 -1.3545536815e+02 1.5756625893e+02 7.7445563713e+01 0.0000e+00 0.0000e+00
        5  1    3    3  501    0 -5.6157912820e+01 +5.7072347102e+01 -1.9306075487e+02 2.0905862587e+02 4.7000000000e+00 0.0000e+00 -1.0000e+00
      -13  1    4    4    0    0 -3.1348768183e+01 +1.3612300789e+00 -3.0769290127e+01 4.3947098070e+01 0.0000000000e+00 0.0000e+00 1.0000e+00
       14  1    4    4    0    0 -6.2914600329e+00 -5.4015884745e+01 -3.3767635570e+02 3.4202722037e+02 0.0000000000e+00 0.0000e+00 -1.0000e+00
       -5  1    5    5    0  502 +1.1485048779e+02 +1.7428714996e+00 -1.5191710940e+02 1.9051133897e+02 4.7000000000e+00 0.0000e+00 1.0000e+00
       13  1    6    6    0    0 +2.0083205313e+01 +1.8556922483e+01 -2.4649358788e+01 3.6814201014e+01 0.0000000000e+00 0.0000e+00 -1.0000e+00
      -14  1    6    6    0    0 -4.1135552069e+01 -2.4717486418e+01 -1.1080600936e+02 1.2075205791e+02 0.0000000000e+00 0.0000e+00 1.0000e+00
<mgrwt>
<rscale>  2 0.19678604E+03</rscale>
<asrwt>0</asrwt>
<pdfrwt beam="1">  1       21 0.72485904E-02 0.19691309E+03</pdfrwt>
<pdfrwt beam="2">  1       21 0.13784532E+00 0.19691309E+03</pdfrwt>
<totfact> 0.52915447E+04</totfact>
</mgrwt>
</event>
<event>
12      1 +1.4674046e+01 1.87561600e+02 7.54677100e-03 1.16092200e-01
       21 -1    0    0  503  502 +0.0000000000e+00 +0.0000000000e+00 +2.2624954404e+02 2.2624954404e+02 0.0000000000e+00 0.0000e+00 -1.0000e+00
       21 -1    0    0  501  503 -0.0000000000e+00 -0.0000000000e+00 -1.6335676912e+02 1.6335676912e+02 0.0000000000e+00 0.0000e+00 -1.0000e+00
        6  2    1    2  501    0 -5.2465541844e+01 +4.6691068314e+01 +7.6591876735e+01 2.0259733699e+02 1.7391571647e+02 0.0000e+00 0.0000e+00
       24  2    3    3    0    0 -5.6160733523e+01 -3.1097844503e+01 +7.2015660760e+01 1.2444491444e+02 7.8607743968e+01 0.0000e+00 0.0000e+00
       -6  2    1    2    0  502 +5.2465541844e+01 -4.6691068314e+01 -1.3699101819e+01 1.8700897617e+02 1.7277732153e+02 0.0000e+00 0.0000e+00
      -24  2    5    5    0    0 +3.5703984696e+01 -8.3775632950e+01 +3.2286766948e+01 1.2542160036e+02 7.9968814660e+01 0.0000e+00 0.0000e+00
        5  1    3    3  501    0 +3.6951916788e+00 +7.7788912817e+01 +4.5762159753e+00 7.8152422557e+01 4.7000000000e+00 0.0000e+00 -1.0000e+00
      -13  1    4    4    0    0 -1.8639843191e+01 -5.3988291332e+01 +4.6283574997e+01 7.3514275279e+01 0.0000000000e+00 0.0000e+00 1.0000e+00
       14  1    4    4    0    0 -3.7520890332e+01 +2.2890446829e+01 +2.5732085762e+01 5.0930639157e+01 0.0000000000e+00 0.0000e+00 -1.0000e+00
       -5  1    5    5    0  502 +1.6761557148e+01 +3.7084564636e+01 -4.5985868767e+01 6.1587375804e+01 4.7000000000e+00 0.0000e+00 1.0000e+00
       13  1    6    6    0    0 +5.6841413342e+01 -6.4239244387e+01 +5.2586168496e+00 8.5937650895e+01 0.0000000000e+00 0.0000e+00 -1.0000e+00
      -14  1    6    6    0    0 -2.1137428646e+01 -1.9536388563e+01 +2.7028150098e+01 3.9483949467e+01 0.0000000000e+00 0.0000e+00 1.0000e+00
<mgrwt>
<rscale>  2 0.18729730E+03</rscale>
<asrwt>0</asrwt>
<pdfrwt beam="1">  1       21 0.34807622E-01 0.18756163E+03</pdfrwt>
<pdfrwt beam="2">  1       21 0.25131810E-01 0.18756163E+03</pdfrwt>
<totfact> 0.11951633E+05</totfact>
</mgrwt>
</event>
<event>
14      3 +1.4674046e+01 1.77029700e+02 7.54677100e-03 1.17077400e-01
       21 -1    0    0  502  503 +0.0000000000e+00 +0.0000000000e+00 +7.2196792679e+01 7.2196792679e+01 0.0000000000e+00 0.0000e+00 1.0000e+00
        2 -1    0    0  504    0 -0.0000000000e+00 -0.0000000000e+00 -1.7941623832e+03 1.7941623832e+03 0.0000000000e+00 0.0000e+00 1.0000e+00
        6  2    1    2  501    0 +2.1847206804e+01 -3.3287802158e+01 -9.9914029271e+01 2.0364554563e+02 1.7292575514e+02 0.0000e+00 0.0000e+00
       24  2    3    3    0    0 -2.8588661803e+00 -8.0463501583e+01 -3.5038229072e+01 1.1958071285e+02 8.1174633883e+01 0.0000e+00 0.0000e+00
       -6  2    1    2    0  503 -2.3988423643e+01 +2.3253442201e+01 -3.8434137223e+02 4.2266366528e+02 1.7265606417e+02 0.0000e+00 0.0000e+00
      -24  2    5    5    0    0 -3.2909830436e+01 +6.7083833034e+01 -1.5948349913e+02 1.9335198272e+02 7.9791635741e+01 0.0000e+00 0.0000e+00
        5  1    3    3  501    0 +2.4706072984e+01 +4.7175699425e+01 -6.4875800199e+01 8.4064832778e+01 4.7000000000e+00 0.0000e+00 -1.0000e+00
      -13  1    4    4    0    0 +2.0237932114e+01 -1.8603944129e+01 +1.9693382151e+01 3.3815823722e+01 0.0000000000e+00 0.0000e+00 1.0000e+00
       14  1    4    4    0    0 -2.3096798294e+01 -6.1859557454e+01 -5.4731611224e+01 8.5764889127e+01 0.0000000000e+00 0.0000e+00 -1.0000e+00
       -5  1    5    5    0  503 +8.9214067926e+00 -4.3830390832e+01 -2.2485787311e+02 2.2931168256e+02 4.7000000000e+00 0.0000e+00 1.0000e+00
       13  1    6    6    0    0 +2.5058170697e+01 +1.1936809700e+01 -2.7913480576e+01 3.9364473099e+01 0.0000000000e+00 0.0000e+00 -1.0000e+00
      -14  1    6    6    0    0 -5.7968001133e+01 +5.5147023333e+01 -1.3157001855e+02 1.5398750962e+02 0.0000000000e+00 0.0000e+00 1.0000e+00
       21  1    1    2  504  501 -2.7671539885e+01 +1.5459349912e+01 -2.6823429630e+02 2.7010061705e+02 0.0000000000e+00 0.0000e+00 1.0000e+00
        2  1    1    2  502    0 +2.9812756724e+01 -5.4249899553e+00 -9.6947589275e+02 9.6994934795e+02 0.0000000000e+00 0.0000e+00 1.0000e+00
<mgrwt>
<rscale>  4 0.17696385E+03</rscale>
<asrwt>0</asrwt>
<pdfrwt beam="1">  1       21 0.11107201E-01 0.17702975E+03</pdfrwt>
<pdfrwt beam="2">  1        2 0.27602494E+00 0.17702975E+03</pdfrwt>
<totfact> 0.83555890E+03</totfact>
</mgrwt>
</event>
<event>
12      1 +1.4674046e+01 2.35554900e+02 7.54677100e-03 1.12279000e-01
       -2 -1    0    0    0  501 -0.0000000000e+00 +0.0000000000e+00 +3.6670485975e+01 3.6670485975e+01 0.0000000000e+00 0.0000e+00 -1.0000e+00
        2 -1    0    0  502    0 +0.0000000000e+00 -0.0000000000e+00 -1.6248101539e+03 1.6248101539e+03 0.0000000000e+00 0.0000e+00 1.0000e+00
        6  2    1    2  502    0 +1.6080879508e+02 -3.3804295686e-01 -5.7594442468e+02 6.2221634820e+02 1.7199308357e+02 0.0000e+00 0.0000e+00
       24  2    3    3    0    0 +7.2678675908e+01 +6.0475597851e+01 -3.6998496895e+02 3.9003839012e+02 7.9382495868e+01 0.0000e+00 0.0000e+00
       -6  2    1    2    0  501 -1.6080879508e+02 +3.3804295686e-01 -1.0121952432e+03 1.0392642917e+03 1.7225409909e+02 0.0000e+00 0.0000e+00
      -24  2    5    5    0    0 -3.4401182180e+01 +4.8711799823e+01 -3.5127436708e+02 3.6461075133e+02 7.7401797388e+01 0.0000e+00 0.0000e+00
        5  1    3    3  502    0 +8.8130119175e+01 -6.0813640807e+01 -2.0595945574e+02 2.3217795809e+02 4.7000000000e+00 0.0000e+00 -1.0000e+00
      -13  1    4    4    0    0 +7.3131262692e+01 +5.6441700155e+01 -2.0330149464e+02 2.2330549663e+02 0.0000000000e+00 0.0000e+00 1.0000e+00
       14  1    4    4    0    0 -4.5258678322e-01 +4.0338976951e+00 -1.6668347430e+02 1.6673289349e+02 0.0000000000e+00 0.0000e+00 -1.0000e+00
       -5  1    5    5    0  501 -1.2640761290e+02 -4.8373756866e+01 -6.6092087615e+02 6.7465354033e+02 4.7000000000e+00 0.0000e+00 1.0000e+00
       13  1    6    6    0    0 -6.4273323563e+00 +2.6721957665e+01 -2.7474048004e+01 3.8861252378e+01 0.0000000000e+00 0.0000e+00 -1.0000e+00
      -14  1    6    6    0    0 -2.7973849823e+01 +2.1989842158e+01 -3.2380031907e+02 3.2574949895e+02 0.0000000000e+00 0.0000e+00 1.0000e+00
<mgrwt>
<rscale>  2 0.23555490E+03</rscale>
<asrwt>0</asrwt>
<pdfrwt beam="2">  1        2 0.24997069E+00 0.23555490E+03</pdfrwt>
<pdfrwt beam="1">  1       -2 0.56416155E-02 0.23555490E+03</pdfrwt>
<totfact> 0.19078511E+03</totfact>
</mgrwt>
</event>
<event>
13      3 +1.4674046e+01 5.06122700e+02 7.54677100e-03 1.02651700e-01
        2 -1    0    0  501    0 -0.0000000000e+00 +0.0000000000e+00 +1.4271743484e+03 1.4271743484e+03 0.0000000000e+00 0.0000e+00 1.0000e+00
       21 -1    0    0  504  503 +0.0000000000e+00 -0.0000000000e+00 -8.5030393404e+02 8.5030393404e+02 0.0000000000e+00 0.0000e+00 1.0000e+00
        6  2    1    2  501    0 -1.4717247078e+02 +2.1805887743e+02 +2.3255619256e+02 3.9422875678e+02 1.7923314367e+02 0.0000e+00 0.0000e+00
       24  2    3    3    0    0 -1.1334252465e+02 +1.2539547933e+02 +2.2832847880e+02 2.9538072105e+02 8.0903164377e+01 0.0000e+00 0.0000e+00
      -24  2    1    2    0    0 +2.6572695869e+02 -2.8591773781e+02 +7.8495308771e+00 3.9890932097e+02 8.1897874536e+01 0.0000e+00 0.0000e+00
        5  1    3    3  501    0 -3.3829946131e+01 +9.2663398105e+01 +4.2277137583e+00 9.8848035728e+01 4.7000000000e+00 0.0000e+00 -1.0000e+00
      -13  1    4    4    0    0 +1.2463989355e-01 +5.2247144102e+01 +6.8966802727e+01 8.6522826354e+01 0.0000000000e+00 0.0000e+00 1.0000e+00
       14  1    4    4    0    0 -1.1346716454e+02 +7.3148335228e+01 +1.5936167607e+02 2.0885789469e+02 0.0000000000e+00 0.0000e+00 -1.0000e+00
       -5  1    1    2    0  503 -1.0698857663e+02 +3.7230762969e+01 +4.2391756642e+01 1.2104476970e+02 4.7000000000e+00 0.0000e+00 1.0000e+00
       13  1    5    5    0    0 +2.3959514610e+02 -2.1020314644e+02 +5.9003518573e+00 3.1878834822e+02 0.0000000000e+00 0.0000e+00 -1.0000e+00
      -14  1    5    5    0    0 +2.6131812587e+01 -7.5714591374e+01 +1.9491790198e+00 8.0120972753e+01 0.0000000000e+00 0.0000e+00 1.0000e+00
       21  1    1    2  504  502 -2.8368145843e+01 +5.8824709116e+00 -5.3394851266e+02 5.3473392387e+02 0.0000000000e+00 0.0000e+00 1.0000e+00
        2  1    1    2  502    0 +1.6802234560e+01 +2.4745626497e+01 +8.2802144696e+02 8.2856151114e+02 0.0000000000e+00 0.0000e+00 1.0000e+00
<mgrwt>
<rscale>  4 0.45406470E+03</rscale>
<asrwt>0</asrwt>
<pdfrwt beam="2">  1       21 0.13081599E+00 0.50612266E+03</pdfrwt>
<pdfrwt beam="1">  1        2 0.21956528E+00 0.50612266E+03</pdfrwt>
<totfact> 0.67777357E+01</totfact>
</mgrwt>
</event>
<event>
13      2 +1.4674046e+01 2.37477000e+02 7.54677100e-03 1.12161600e-01
       21 -1    0    0  502  503 +0.0000000000e+00 +0.0000000000e+00 +2.1167295012e+02 2.1167295012e+02 0.0000000000e+00 0.0000e+00 -1.0000e+00
        1 -1    0    0  501    0 -0.0000000000e+00 -0.0000000000e+00 -1.4122817557e+03 1.4122817557e+03 0.0000000000e+00 0.0000e+00 -1.0000e+00
        6  2    1    2  501    0 -4.6629595815e+01 -1.4384795834e+02 -2.6825035473e+02 3.5308627405e+02 1.7275737260e+02 0.0000e+00 0.0000e+00
       24  2    3    3    0    0 -3.9543186793e+00 -1.6258278293e+02 -1.9287568750e+02 2.6434167765e+02 7.8909402293e+01 0.0000e+00 0.0000e+00
       -6  2    1    2    0  503 +7.3815266745e+01 +1.4922701946e+02 +8.4490992924e+01 2.5364142353e+02 1.7169113811e+02 0.0000e+00 0.0000e+00
      -24  2    5    5    0    0 +2.6789153003e+01 +8.7038540606e+01 +1.1111552487e+02 1.7111980226e+02 9.2962145998e+01 0.0000e+00 0.0000e+00
        5  1    3    3  501    0 -4.2675277136e+01 +1.8734824595e+01 -7.5374667234e+01 8.8744596409e+01 4.7000000000e+00 0.0000e+00 -1.0000e+00
      -13  1    4    4    0    0 -8.6753701154e-01 -1.2049741274e+02 -8.2127151269e+01 1.4582608845e+02 0.0000000000e+00 0.0000e+00 1.0000e+00
       14  1    4    4    0    0 -3.0867816677e+00 -4.2085370194e+01 -1.1074853623e+02 1.1851558920e+02 0.0000000000e+00 0.0000e+00 -1.0000e+00
       -5  1    5    5    0  503 +4.7026113742e+01 +6.2188478853e+01 -2.6624531948e+01 8.2521621271e+01 4.7000000000e+00 0.0000e+00 1.0000e+00
       13  1    6    6    0    0 +5.6193392647e+01 +2.6746906117e+01 +4.3908090634e+01 7.6164393171e+01 0.0000000000e+00 0.0000e+00 -1.0000e+00
      -14  1    6    6    0    0 -2.9404239644e+01 +6.0291634489e+01 +6.7207434238e+01 9.4955409089e+01 0.0000000000e+00 0.0000e+00 1.0000e+00
        1  1    1    2  502    0 -2.7185670930e+01 -5.3790611230e+00 -1.0168494437e+03 1.0172270082e+03 0.0000000000e+00 0.0000e+00 -1.0000e+00
<mgrwt>
<rscale>  3 0.23728316E+03</rscale>
<asrwt>0</asrwt>
<pdfrwt beam="1">  1       21 0.32565070E-01 0.23747703E+03</pdfrwt>
<pdfrwt beam="2">  1        1 0.21727411E+00 0.23747703E+03</pdfrwt>
<totfact> 0.82085756E+02</totfact>
</mgrwt>
</event>
<event>
13      2 +1.4674046e+01 5.82605100e+02 7.54677100e-03 9.94264300e-02
       21 -1    0    0  504  502 +0.0000000000e+00 +0.0000000000e+00 +1.1701031868e+03 1.1701031868e+03 0.0000000000e+00 0.0000e+00 1.0000e+00
       21 -1    0    0  502  503 -0.0000000000e+00 -0.0000000000e+00 -4.5821866644e+02 4.5821866644e+02 0.0000000000e+00 0.0000e+00 -1.0000e+00
       -6  2    1    2    0  503 -5.6540851807e+02 +1.3786027913e+02 +7.7980894018e+02 9.8804905151e+02 1.7160039668e+02 0.0000e+00 0.0000e+00
      -24  2    3    3    0    0 -3.4207578085e+02 +1.3093382132e+02 +4.1018157671e+02 5.5610928122e+02 8.2759297848e+01 0.0000e+00 0.0000e+00
        6  2    1    2  501    0 +4.6182774260e+02 -1.6537801533e+02 -1.5377964761e+01 5.2091061007e+02 1.7457557129e+02 0.0000e+00 0.0000e+00
       24  2    5    5    0    0 +7.9025579522e+01 -2.7198605058e+01 -4.6495357012e+00 1.1376415648e+02 7.7044524667e+01 0.0000e+00 0.0000e+00
        5  1    5    5  501    0 +3.8280216308e+02 -1.3817941028e+02 -1.0728429060e+01 4.0714645359e+02 4.7000000000e+00 0.0000e+00 -1.0000e+00
      -13  1    6    6    0    0 +1.1187574174e+01 -1.5155986513e+01 +3.0934612447e+01 3.6219000405e+01 0.0000000000e+00 0.0000e+00 1.0000e+00
       14  1    6    6    0    0 +6.7838005348e+01 -1.2042618545e+01 -3.5584148148e+01 7.7545156074e+01 0.0000000000e+00 0.0000e+00 -1.0000e+00
       -5  1    3    3    0  503 -2.2333273722e+02 +6.9264578073e+00 +3.6962736347e+02 4.3193977029e+02 4.7000000000e+00 0.0000e+00 1.0000e+00
       13  1    4    4    0    0 -8.8112097587e+01 +5.8875519155e+01 +7.6854747464e+01 1.3090729813e+02 0.0000000000e+00 0.0000e+00 -1.0000e+00
      -14  1    4    4    0    0 -2.5396368326e+02 +7.2058302163e+01 +3.3332682925e+02 4.2520198309e+02 0.0000000000e+00 0.0000e+00 1.0000e+00
       21  1    1    2  504  501 +1.0358077547e+02 +2.7517736209e+01 -5.2546455081e+01 1.1936219165e+02 0.0000000000e+00 0.0000e+00 -1.0000e+00
<mgrwt>
<rscale>  3 0.58238385E+03</rscale>
<asrwt>0</asrwt>
<pdfrwt beam="1">  1       21 0.18001587E+00 0.58260512E+03</pdfrwt>
<pdfrwt beam="2">  1       21 0.70495180E-01 0.58260512E+03</pdfrwt>
<totfact> 0.25576341E+02</totfact>
</mgrwt>
</event>
<event>
14      3 +1.4674046e+01 2.61754000e+02 7.54677100e-03 1.10644600e-01
       -1 -1    0    0    0  501 -0.0000000000e+00 +0.0000000000e+00 +5.3634314848e+02 5.3634314848e+02 0.0000000000e+00 0.0000e+00 1.0000e+00
       21 -1    0    0  502  503 +0.0000000000e+00 -0.0000000000e+00 -1.5607556134e+03 1.5607556134e+03 0.0000000000e+00 0.0000e+00 -1.0000e+00
        6  2    1    2  502    0 -1.3050451633e+01 -1.9607033403e+02 -3.9150014959e+02 4.7239403001e+02 1.7683286539e+02 0.0000e+00 0.0000e+00
       24  2    3    3    0    0 -4.4535431379e+01 -1.8106833322e+02 -3.8661978779e+02 4.3686556383e+02 8.1286620077e+01 0.0000e+00 0.0000e+00
       -6  2    1    2    0  504 -6.1079568316e-01 +1.7251630902e+02 -1.0229659749e+03 1.0517908262e+03 1.7332716529e+02 0.0000e+00 0.0000e+00
      -24  2    5    5    0    0 -5.4086876333e+01 +1.5364726492e+02 -8.6471869550e+02 8.8362417231e+02 8.0748890623e+01 0.0000e+00 0.0000e+00
        5  1    3    3  502    0 +3.1484979745e+01 -1.5002000808e+01 -4.8803618007e+00 3.5528466180e+01 4.7000000000e+00 0.0000e+00 -1.0000e+00
      -13  1    4    4    0    0 -3.8673703689e+01 -5.5184300950e+01 -2.0512062799e+02 2.1590607786e+02 0.0000000000e+00 0.0000e+00 1.0000e+00
       14  1    4    4    0    0 -5.8617276897e+00 -1.2588403227e+02 -1.8149915980e+02 2.2095948597e+02 0.0000000000e+00 0.0000e+00 -1.0000e+00
       -5  1    5    5    0  504 +5.3476080650e+01 +1.8869044107e+01 -1.5824727941e+02 1.6816665386e+02 4.7000000000e+00 0.0000e+00 1.0000e+00
       13  1    6    6    0    0 +1.1514178439e+01 +7.1420401565e+01 -2.6241559112e+02 2.7220468866e+02 0.0000000000e+00 0.0000e+00 -1.0000e+00
      -14  1    6    6    0    0 -6.5601054772e+01 +8.2226863351e+01 -6.0230310438e+02 6.1141948365e+02 0.0000000000e+00 0.0000e+00 1.0000e+00
       21  1    1    2  504  501 -3.4459639708e+01 +3.3753016786e+01 -8.3704801770e+01 9.6608626687e+01 0.0000000000e+00 0.0000e+00 1.0000e+00
       -1  1    1    2    0  503 +4.8120887025e+01 -1.0198991780e+01 +4.7375846131e+02 4.7630527906e+02 0.0000000000e+00 0.0000e+00 1.0000e+00
<mgrwt>
<rscale>  4 0.26116314E+03</rscale>
<asrwt>0</asrwt>
<pdfrwt beam="2">  1       21 0.24011625E+00 0.26175400E+03</pdfrwt>
<pdfrwt beam="1">  1       -1 0.82514331E-01 0.26175400E+03</pdfrwt>
<totfact> 0.10115990E+01</totfact>
</mgrwt>
</event>
<event>
12      1 +1.4674046e+01 1.98859600e+02 7.54677100e-03 1.15216000e-01
       21 -1    0    0  501  502 +0.0000000000e+00 +0.0000000000e+00 +2.5239570472e+02 2.5239570472e+02 0.0000000000e+00 0.0000e+00 1.0000e+00
       21 -1    0    0  502  503 -0.0000000000e+00 -0.0000000000e+00 -2.2944750241e+02 2.2944750241e+02 0.0000000000e+00 0.0000e+00 1.0000e+00
       -6  2    1    2    0  503 +9.4805275808e+01 -2.0498094386e+01 -1.2912935024e+02 2.3149797003e+02 1.6585749559e+02 0.0000e+00 0.0000e+00
      -24  2    3    3    0    0 +1.0742518487e+02 -1.7589821951e+00 -4.2675074535e+01 1.4201697642e+02 8.2488758279e+01 0.0000e+00 0.0000e+00
        6  2    1    2  501    0 -9.4805275808e+01 +2.0498094386e+01 +1.5207755256e+02 2.5034523710e+02 1.7359995262e+02 0.0000e+00 0.0000e+00
       24  2    5    5    0    0 -1.3498336319e+02 +2.1377017512e+01 +1.1821945117e+02 1.9758623558e+02 7.9918687671e+01 0.0000e+00 0.0000e+00
        5  1    5    5  501    0 +4.0178087384e+01 -8.7892312633e-01 +3.3858101383e+01 5.2759001516e+01 4.7000000000e+00 0.0000e+00 -1.0000e+00
      -13  1    6    6    0    0 -6.4645788060e+01 +4.2993287904e+01 +8.9792087073e+01 1.1870180967e+02 0.0000000000e+00 0.0000e+00 1.0000e+00
       14  1    6    6    0    0 -7.0337575133e+01 -2.1616270392e+01 +2.8427364101e+01 7.8884425909e+01 0.0000000000e+00 0.0000e+00 -1.0000e+00
       -5  1    3    3    0  503 -1.2619909064e+01 -1.8739112191e+01 -8.6454275703e+01 8.9480993612e+01 4.7000000000e+00 0.0000e+00 1.0000e+00
       13  1    4    4    0    0 +1.2060559308e+01 +2.4383946521e+01 -3.2843158550e+01 4.2646301156e+01 0.0000000000e+00 0.0000e+00 -1.0000e+00
      -14  1    4    4    0    0 +9.5364625564e+01 -2.6142928716e+01 -9.8319159854e+00 9.9370675266e+01 0.0000000000e+00 0.0000e+00 1.0000e+00
<mgrwt>
<rscale>  2 0.19715744E+03</rscale>
<asrwt>0</asrwt>
<pdfrwt beam="1">  1       21 0.38830108E-01 0.19885964E+03</pdfrwt>
<pdfrwt beam="2">  1       21 0.35299616E-01 0.19885964E+03</pdfrwt>
<totfact> 0.49329912E+04</totfact>
</mgrwt>
</event>
<event>
13      2 +1.4674046e+01 3.05898000e+02 7.54677100e-03 1.08232900e-01
        4 -1    0    0  503    0 +0.0000000000e+00 +0.0000000000e+00 +2.9231983556e+02 2.9231983556e+02 0.0000000000e+00 0.0000e+00 1.0000e+00
       -4 -1    0    0    0  501 -0.0000000000e+00 -0.0000000000e+00 -8.2651772657e+02 8.2651772657e+02 0.0000000000e+00 0.0000e+00 -1.0000e+00
        6  2    1    2  502    0 -2.4378275127e+02 +3.5908718306e+01 +1.1638457128e+02 3.2306751819e+02 1.7351595608e+02 0.0000e+00 0.0000e+00
       24  2    3    3    0    0 -1.4198428795e+02 +1.1967136734e+01 +1.3991563901e+02 2.1577386688e+02 8.1726526927e+01 0.0000e+00 0.0000e+00
       -6  2    1    2    0  501 +2.4714979365e+02 -5.6341735375e+01 -6.8795516724e+02 7.5304342183e+02 1.7185654303e+02 0.0000e+00 0.0000e+00
      -24  2    5    5    0    0 +1.1305802404e+02 -2.7316125867e+01 -5.0438186261e+02 5.2381790655e+02 8.0348294031e+01 0.0000e+00 0.0000e+00
        5  1    3    3  502    0 -1.0179846332e+02 +2.3941581572e+01 -2.3531067739e+01 1.0729365131e+02 4.7000000000e+00 0.0000e+00 -1.0000e+00
      -13  1    4    4    0    0 -9.3992179914e+01 +3.6320139415e+01 +5.3809511060e+01 1.1423285820e+02 0.0000000000e+00 0.0000e+00 1.0000e+00
       14  1    4    4    0    0 -4.7992108034e+01 -2.4353002681e+01 +8.6106127954e+01 1.0154100868e+02 0.0000000000e+00 0.0000e+00 -1.0000e+00
       -5  1    5    5    0  501 +1.3409176961e+02 -2.9025609508e+01 -1.8357330462e+02 2.2922551528e+02 4.7000000000e+00 0.0000e+00 1.0000e+00
       13  1    6    6    0    0 +5.6842671852e+01 -5.2998654396e+01 -3.2210555476e+02 3.3134866096e+02 0.0000000000e+00 0.0000e+00 -1.0000e+00
      -14  1    6    6    0    0 +5.6215352184e+01 +2.5682528529e+01 -1.8227630785e+02 1.9246924558e+02 0.0000000000e+00 0.0000e+00 1.0000e+00
       21  1    1    2  503  502 -3.3670423807e+00 +2.0433017069e+01 +3.7372704956e+01 4.2726622107e+01 0.0000000000e+00 0.0000e+00 1.0000e+00
<mgrwt>
<rscale>  3 0.30589803E+03</rscale>
<asrwt>0</asrwt>
<pdfrwt beam="1">  1        4 0.44972283E-01 0.30589803E+03</pdfrwt>
<pdfrwt beam="2">  1       -4 0.12715657E+00 0.30589803E+03</pdfrwt>
<totfact> 0.42072191E+00</totfact>
</mgrwt>
</event>
<event>
12      1 +1.4674046e+01 2.17232400e+02 7.54677100e-03 1.13612100e-01
       21 -1    0    0  501  502 +0.0000000000e+00 +0.0000000000e+00 +5.0671219100e+01 5.0671219100e+01 0.0000000000e+00 0.0000e+00 -1.0000e+00
       21 -1    0    0  502  503 -0.0000000000e+00 -0.0000000000e+00 -9.5878898361e+02 9.5878898361e+02 0.0000000000e+00 0.0000e+00 -1.0000e+00
       -6  2    1    2    0  503 +1.1213469384e+02 +6.7031506181e+01 -5.4573021897e+02 5.8737668667e+02 1.7355831229e+02 0.0000e+00 0.0000e+00
      -24  2    3    3    0    0 +3.8109770432e+01 +8.5276298360e+01 -4.3994583808e+02 4.5689685311e+02 8.0485975604e+01 0.0000e+00 0.0000e+00
        6  2    1    2  501    0 -1.1213469384e+02 -6.7031506181e+01 -3.6238754554e+02 4.2208351603e+02 1.7251767726e+02 0.0000e+00 0.0000e+00
       24  2    5    5    0    0 -2.5091394425e+01 +1.7945838884e+01 -2.0878119383e+02 2.2608686700e+02 8.1080536057e+01 0.0000e+00 0.0000e+00
        5  1    5    5  501    0 -8.7043299413e+01 -8.4977345065e+01 -1.5360635171e+02 1.9599664903e+02 4.7000000000e+00 0.0000e+00 -1.0000e+00
      -13  1    6    6    0    0 +2.8330329184e+01 -1.5744438023e+00 -5.0915161607e+01 5.8287563909e+01 0.0000000000e+00 0.0000e+00 1.0000e+00
       14  1    6    6    0    0 -5.3421723609e+01 +1.9520282687e+01 -1.5786603222e+02 1.6779930309e+02 0.0000000000e+00 0.0000e+00 -1.0000e+00
       -5  1    3    3    0  503 +7.4024923406e+01 -1.8244792179e+01 -1.0578438089e+02 1.3047983357e+02 4.7000000000e+00 0.0000e+00 1.0000e+00
       13  1    4    4    0    0 +4.1769433943e+01 +6.3432877828e+00 -1.1603159133e+02 1.2348381715e+02 0.0000000000e+00 0.0000e+00 -1.0000e+00
      -14  1    4    4    0    0 -3.6596635111e+00 +7.8933010577e+01 -3.2391424675e+02 3.3341303596e+02 0.0000000000e+00 0.0000e+00 1.0000e+00
<mgrwt>
<rscale>  2 0.21702444E+03</rscale>
<asrwt>0</asrwt>
<pdfrwt beam="1">  1       21 0.77955713E-02 0.21723236E+03</pdfrwt>
<pdfrwt beam="2">  1       21 0.14750601E+00 0.21723236E+03</pdfrwt>
<totfact> 0.38654842E+04</totfact>
</mgrwt>
</event>
<event>
12      1 +1.4674046e+01 1.89874200e+02 7.54677100e-03 1.15859400e-01
       21 -1    0    0  501  502 +0.0000000000e+00 +0.0000000000e+00 +1.7132410459e+02 1.7132410459e+02 0.0000000000e+00 0.0000e+00 -1.0000e+00
       21 -1    0    0  502  503 -0.0000000000e+00 -0.0000000000e+00 -2.2077540623e+02 2.2077540623e+02 0.0000000000e+00 0.0000e+00 -1.0000e+00
        6  2    1    2  501    0 -7.5175702353e+01 +2.2900540204e+01 +1.7895637969e+01 1.9071570368e+02 1.7284792393e+02 0.0000e+00 0.0000e+00
       24  2    3    3    0    0 -9.4226161271e+01 -3.3902268338e+01 +1.8669556770e+00 1.2851853575e+02 8.0533193413e+01 0.0000e+00 0.0000e+00
       -6  2    1    2    0  503 +7.5175702353e+01 -2.2900540204e+01 -6.7346939606e+01 2.0138380714e+02 1.7275417951e+02 0.0000e+00 0.0000e+00
      -24  2    5    5    0    0 +6.5205747562e+01 +5.7144385818e+01 -2.7813242104e+01 1.1143052249e+02 6.4233282342e+01 0.0000e+00 0.0000e+00
        5  1    3    3  501    0 +1.9050458917e+01 +5.6802808542e+01 +1.6028682292e+01 6.2197167936e+01 4.7000000000e+00 0.0000e+00 -1.0000e+00
      -13  1    4    4    0    0 -8.4740340459e+01 -4.7070425413e+01 -2.2243273461e+01 9.9455082645e+01 0.0000000000e+00 0.0000e+00 1.0000e+00
       14  1    4    4    0    0 -9.4858208114e+00 +1.3168157075e+01 +2.4110229138e+01 2.9063453104e+01 0.0000000000e+00 0.0000e+00 -1.0000e+00
       -5  1    5    5    0  503 +9.9699547910e+00 -8.0044926022e+01 -3.9533697501e+01 8.9953284646e+01 4.7000000000e+00 0.0000e+00 1.0000e+00
       13  1    6    6    0    0 +4.2936345682e+01 +4.1209142160e+01 -4.8773974966e+01 7.6945589945e+01 0.0000000000e+00 0.0000e+00 -1.0000e+00
      -14  1    6    6    0    0 +2.2269401880e+01 +1.5935243658e+01 +2.0960732861e+01 3.4484932545e+01 0.0000000000e+00 0.0000e+00 1.0000e+00
<mgrwt>
<rscale>  2 0.18985290E+03</rscale>
<asrwt>0</asrwt>
<pdfrwt beam="1">  1       21 0.26357555E-01 0.18987424E+03</pdfrwt>
<pdfrwt beam="2">  1       21 0.33965447E-01 0.18987424E+03</pdfrwt>
<totfact> 0.11443394E+05</totfact>
</mgrwt>
</event>
<event>
14      3 +1.4674046e+01 2.97909300e+02 7.54677100e-03 1.08638400e-01
        1 -1    0    0  503    0 -0.0000000000e+00 +0.0000000000e+00 +1.6909814656e+03 1.6909814656e+03 0.0000000000e+00 0.0000e+00 -1.0000e+00
       21 -1    0    0  504  503 +0.0000000000e+00 -0.0000000000e+00 -2.2852540132e+02 2.2852540132e+02 0.0000000000e+00 0.0000e+00 -1.0000e+00
       -6  2    1    2    0  502 +8.3307488025e+01 +2.3350916072e+02 -4.4322826990e+01 3.0536916943e+02 1.7268222533e+02 0.0000e+00 0.0000e+00
      -24  2    3    3    0    0 +9.8771226133e+01 +1.2368521501e+02 -7.2168223876e+01 1.9092318927e+02 7.8674164372e+01 0.0000e+00 0.0000e+00
        6  2    1    2  504    0 -6.3971237704e+01 -2.1885380597e+02 +3.2628496162e+02 4.3339446208e+02 1.7140471389e+02 0.0000e+00 0.0000e+00
       24  2    5    5    0    0 -2.9561061573e+01 -3.6527995496e+01 +8.5554369640e+01 1.2579726941e+02 7.9355226742e+01 0.0000e+00 0.0000e+00
        5  1    5    5  501    0 +3.9250254342e+00 -1.0075152445e+02 +1.1709700505e+02 1.5459648798e+02 4.7000000000e+00 0.0000e+00 -1.0000e+00
      -13  1    6    6    0    0 -1.8068137389e+01 -4.4802572613e+01 +1.0523496683e+01 4.9441602765e+01 0.0000000000e+00 0.0000e+00 1.0000e+00
       14  1    6    6    0    0 -1.1492924183e+01 +8.2745771171e+00 +7.5030872957e+01 7.6355666650e+01 0.0000000000e+00 0.0000e+00 -1.0000e+00
       -5  1    3    3    0  502 -1.5463738108e+01 +1.0982394571e+02 +2.7845396887e+01 1.1444598016e+02 4.7000000000e+00 0.0000e+00 1.0000e+00
       13  1    4    4    0    0 +7.8701051454e+01 +7.5255512818e+01 -9.6258597148e+00 1.0931562050e+02 0.0000000000e+00 0.0000e+00 -1.0000e+00
      -14  1    4    4    0    0 +2.0070174679e+01 +4.8429702191e+01 -6.2542364162e+01 8.1607568772e+01 0.0000000000e+00 0.0000e+00 1.0000e+00
       21  1    5    5  504  501 -3.8335201566e+01 -8.1574286021e+01 +1.2363358692e+02 1.5300070468e+02 0.0000000000e+00 0.0000e+00 -1.0000e+00
        1  1    1    2  502    0 -1.9336250321e+01 -1.4655354755e+01 +1.1804939297e+03 1.1807432354e+03 0.0000000000e+00 0.0000e+00 -1.0000e+00
<mgrwt>
<rscale>  4 0.29772450E+03</rscale>
<asrwt>0</asrwt>
<pdfrwt beam="2">  1       21 0.35157755E-01 0.29790934E+03</pdfrwt>
<pdfrwt beam="1">  1        1 0.26015099E+00 0.29790934E+03</pdfrwt>
<totfact> 0.44735806E+02</totfact>
</mgrwt>
</event>
<event>
14      3 +1.4674046e+01 1.81063100e+02 7.54677100e-03 1.16822300e-01
       21 -1    0    0  504  503 +0.0000000000e+00 +0.0000000000e+00 +4.3815926904e+02 4.3815926904e+02 0.0000000000e+00 0.0000e+00 1.0000e+00
        3 -1    0    0  501    0 -0.0000000000e+00 -0.0000000000e+00 -3.3448008499e+02 3.3448008499e+02 0.0000000000e+00 0.0000e+00 1.0000e+00
        6  2    1    2  501    0 +2.2101186113e+01 -5.8934353341e+01 +6.6233131446e+01 1.9587951931e+02 1.7326349285e+02 0.0000e+00 0.0000e+00
       24  2    3    3    0    0 -3.8388914142e+01 -7.6664519437e+01 +6.0597481537e+01 1.3241881046e+02 8.0694047640e+01 0.0000e+00 0.0000e+00
       -6  2    1    2    0  503 +4.7934190360e+01 +9.4813185483e-01 -7.3414383699e+01 1.9953390811e+02 1.7923594280e+02 0.0000e+00 0.0000e+00
      -24  2    5    5    0    0 +6.0807436590e+01 +5.1453720274e+01 -9.0003715217e+01 1.4463553973e+02 8.0459560815e+01 0.0000e+00 0.0000e+00
        5  1    3    3  501    0 +6.0490100255e+01 +1.7730166096e+01 +5.6356499087e+00 6.3460708856e+01 4.7000000000e+00 0.0000e+00 -1.0000e+00
      -13  1    4    4    0    0 -7.7867501431e+00 -6.1999276992e+01 -5.4703965646e-01 6.2488743608e+01 0.0000000000e+00 0.0000e+00 1.0000e+00
       14  1    4    4    0    0 -3.0602163999e+01 -1.4665242444e+01 +6.1144521194e+01 6.9930066848e+01 0.0000000000e+00 0.0000e+00 -1.0000e+00
       -5  1    5    5    0  503 -1.2873246230e+01 -5.0505588419e+01 +1.6589331518e+01 5.4898368376e+01 4.7000000000e+00 0.0000e+00 1.0000e+00
       13  1    6    6    0    0 -1.9431922198e+01 +3.5597050083e+00 -1.4723137724e+01 2.4638219995e+01 0.0000000000e+00 0.0000e+00 -1.0000e+00
      -14  1    6    6    0    0 +8.0239358788e+01 +4.7894015266e+01 -7.5280577493e+01 1.1999731974e+02 0.0000000000e+00 0.0000e+00 1.0000e+00
       21  1    1    2  504  502 +2.6326042908e+00 +4.4151810245e+01 +2.3151389558e+02 2.3570107509e+02 0.0000000000e+00 0.0000e+00 1.0000e+00
        3  1    1    2  502    0 -7.2667980764e+01 +1.3834411241e+01 -1.2065345928e+02 1.4152485152e+02 0.0000000000e+00 0.0000e+00 1.0000e+00
<mgrwt>
<rscale>  4 0.17956711E+03</rscale>
<asrwt>0</asrwt>
<pdfrwt beam="1">  1       21 0.67409119E-01 0.18106308E+03</pdfrwt>
<pdfrwt beam="2">  1        3 0.51458474E-01 0.18106308E+03</pdfrwt>
<totfact> 0.37577451E+02</totfact>
</mgrwt>
</event>
<event>
13      2 +1.4674046e+01 2.39408100e+02 7.54677100e-03 1.12041000e-01
       21 -1    0    0  501  502 +0.0000000000e+00 +0.0000000000e+00 +5.3524469995e+02 5.3524469995e+02 0.0000000000e+00 0.0000e+00 -1.0000e+00
       21 -1    0    0  504  503 -0.0000000000e+00 -0.0000000000e+00 -1.6202940921e+02 1.6202940921e+02 0.0000000000e+00 0.0000e+00 -1.0000e+00
        6  2    1    2  501    0 -1.6772832878e+02 -8.2310278362e+01 +2.6558607804e+02 3.6737852705e+02 1.7182329030e+02 0.0000e+00 0.0000e+00
       24  2    3    3    0    0 -3.7973689870e+01 +1.5273312793e+01 +1.1032540839e+02 1.4268587225e+02 8.0698743466e+01 0.0000e+00 0.0000e+00
       -6  2    1    2    0  503 +1.3441229828e+02 +7.9524182746e+01 +1.8013266798e+01 2.3424654668e+02 1.7365542112e+02 0.0000e+00 0.0000e+00
      -24  2    5    5    0    0 +1.3733089666e+02 +1.1561089675e+02 +1.0748961484e+01 1.9702250505e+02 8.0477777667e+01 0.0000e+00 0.0000e+00
        5  1    3    3  501    0 -1.2975463891e+02 -9.7583591155e+01 +1.5526066965e+02 2.2469265480e+02 4.7000000000e+00 0.0000e+00 -1.0000e+00
      -13  1    4    4    0    0 -1.9000436313e+01 -1.4296404421e+01 -3.0671272894e+00 2.3975216980e+01 0.0000000000e+00 0.0000e+00 1.0000e+00
       14  1    4    4    0    0 -1.8973253557e+01 +2.9569717214e+01 +1.1339253568e+02 1.1871065527e+02 0.0000000000e+00 0.0000e+00 -1.0000e+00
       -5  1    5    5    0  503 -2.9185983853e+00 -3.6086714002e+01 +7.2643053137e+00 3.7224041635e+01 4.7000000000e+00 0.0000e+00 1.0000e+00
       13  1    6    6    0    0 +1.3789242532e+02 +9.9521938300e+01 +2.9190390679e+01 1.7254279490e+02 0.0000000000e+00 0.0000e+00 -1.0000e+00
      -14  1    6    6    0    0 -5.6152865698e-01 +1.6088958448e+01 -1.8441429194e+01 2.4479710152e+01 0.0000000000e+00 0.0000e+00 1.0000e+00
       21  1    1    2  504  502 +3.3316030506e+01 +2.7860956161e+00 +8.9615945905e+01 9.5649035426e+01 0.0000000000e+00 0.0000e+00 -1.0000e+00
<mgrwt>
<rscale>  3 0.23907597E+03</rscale>
<asrwt>0</asrwt>
<pdfrwt beam="1">  1       21 0.82345337E-01 0.23940806E+03</pdfrwt>
<pdfrwt beam="2">  1       21 0.24927602E-01 0.23940806E+03</pdfrwt>
<totfact> 0.19102073E+04</totfact>
</mgrwt>
</event>
<event>
13      3 +1.4674046e+01 3.88107300e+02 7.54677100e-03 1.07076500e-01
       -2 -1    0    0    0  501 +0.0000000000e+00 +0.0000000000e+00 +7.6789419861e+02 7.6789419861e+02 0.0000000000e+00 0.0000e+00 -1.0000e+00
       -4 -1    0    0    0  502 -0.0000000000e+00 -0.0000000000e+00 -1.7638468416e+03 1.7638468416e+03 0.0000000000e+00 0.0000e+00 1.0000e+00
       24  2    1    2    0    0 +7.3561912286e+01 -1.0322807734e+01 +2.4911651799e+02 2.7115188018e+02 7.7112821820e+01 0.0000e+00 0.0000e+00
       -6  2    1    2    0  501 +8.5339411086e+01 -4.0598413770e+01 +1.4054297296e+02 2.4196182910e+02 1.7280669318e+02 0.0000e+00 0.0000e+00
      -24  2    4    4    0    0 +3.9989450860e+01 +9.6382517447e+00 +1.4697563047e+02 1.7381631907e+02 8.3175866363e+01 0.0000e+00 0.0000e+00
        5  1    1    2  503    0 -1.8901989518e+02 +9.3000346740e+01 +2.4598880023e+01 2.1214330102e+02 4.7000000000e+00 0.0000e+00 -1.0000e+00
      -13  1    3    3    0    0 +5.8003353276e+01 -4.1725648501e+01 +1.5350537243e+02 1.6932016448e+02 0.0000000000e+00 0.0000e+00 1.0000e+00
       14  1    3    3    0    0 +1.5558559010e+01 +3.1402840767e+01 +9.5611145564e+01 1.0183171570e+02 0.0000000000e+00 0.0000e+00 -1.0000e+00
       -5  1    4    4    0  501 +4.5349960227e+01 -5.0236665514e+01 -6.4326575096e+00 6.8145510030e+01 4.7000000000e+00 0.0000e+00 1.0000e+00
       13  1    5    5    0    0 -2.1289719506e+01 -1.5210875671e+01 +5.0147021480e+01 5.6562767424e+01 0.0000000000e+00 0.0000e+00 -1.0000e+00
      -14  1    5    5    0    0 +6.1279170366e+01 +2.4849127415e+01 +9.6828608994e+01 1.1725355165e+02 0.0000000000e+00 0.0000e+00 1.0000e+00
       -2  1    1    2    0  502 +6.9684022914e+00 -4.6310058289e+01 +1.9528180864e+02 2.0081873646e+02 0.0000000000e+00 0.0000e+00 -1.0000e+00
       -4  1    1    2    0  503 +2.3150169517e+01 +4.2309330531e+00 -1.6054928226e+03 1.6056652935e+03 0.0000000000e+00 0.0000e+00 1.0000e+00
<mgrwt>
<rscale>  4 0.33084294E+03</rscale>
<asrwt>0</asrwt>
<pdfrwt beam="1">  1       -2 0.11813757E+00 0.38810730E+03</pdfrwt>
<pdfrwt beam="2">  1       -4 0.27136105E+00 0.38810730E+03</pdfrwt>
<totfact> 0.10115274E-01</totfact>
</mgrwt>
</event>
<event>
12      1 +1.4674046e+01 2.82681700e+02 7.54677100e-03 1.09425300e-01
       21 -1    0    0  501  502 +0.0000000000e+00 +0.0000000000e+00 +4.3064449848e+02 4.3064449848e+02 0.0000000000e+00 0.0000e+00 1.0000e+00
       21 -1    0    0  502  503 -0.0000000000e+00 -0.0000000000e+00 -7.3977849497e+02 7.3977849497e+02 0.0000000000e+00 0.0000e+00 -1.0000e+00
       -6  2    1    2    0  503 +2.2189487644e+02 -8.2706555680e+00 -6.6114964556e+02 7.1904644777e+02 1.7493770401e+02 0.0000e+00 0.0000e+00
      -24  2    3    3    0    0 +1.8261328581e+02 +1.3041825186e+01 -3.4283605573e+02 3.9757654767e+02 8.3742753633e+01 0.0000e+00 0.0000e+00
        6  2    1    2  501    0 -2.2189487644e+02 +8.2706555680e+00 +3.5201564907e+02 4.5137654569e+02 1.7469982504e+02 0.0000e+00 0.0000e+00
       24  2    5    5    0    0 -1.6417182943e+02 +4.1372949595e+01 +1.5454067331e+02 2.4293910164e+02 8.0451705169e+01 0.0000e+00 0.0000e+00
        5  1    5    5  501    0 -5.7723047018e+01 -3.3102294027e+01 +1.9747497577e+02 2.0843744405e+02 4.7000000000e+00 0.0000e+00 -1.0000e+00
      -13  1    6    6    0    0 -7.5466207398e+01 -2.1397898994e+01 +7.2025753857e+01 1.0649285309e+02 0.0000000000e+00 0.0000e+00 1.0000e+00
       14  1    6    6    0    0 -8.8705622029e+01 +6.2770848589e+01 +8.2514919451e+01 1.3644624855e+02 0.0000000000e+00 0.0000e+00 -1.0000e+00
       -5  1    3    3    0  503 +3.9281590630e+01 -2.1312480754e+01 -3.1831358983e+02 3.2146990010e+02 4.7000000000e+00 0.0000e+00 1.0000e+00
       13  1    4    4    0    0 +1.3888487314e+02 -2.7254922804e+01 -2.5147637452e+02 2.8856923908e+02 0.0000000000e+00 0.0000e+00 -1.0000e+00
      -14  1    4    4    0    0 +4.3728412679e+01 +4.0296747990e+01 -9.1359681212e+01 1.0900730859e+02 0.0000000000e+00 0.0000e+00 1.0000e+00
<mgrwt>
<rscale>  2 0.28264490E+03</rscale>
<asrwt>0</asrwt>
<pdfrwt beam="1">  1       21 0.66253000E-01 0.28268169E+03</pdfrwt>
<pdfrwt beam="2">  1       21 0.11381208E+00 0.28268169E+03</pdfrwt>
<totfact> 0.11669189E+03</totfact>
</mgrwt>
</event>
<event>
13      2 +1.4674046e+01 2.70877000e+02 7.54677100e-03 1.10088300e-01
       21 -1    0    0  503  502 +0.0000000000e+00 +0.0000000000e+00 +1.9831523179e+02 1.9831523179e+02 0.0000000000e+00 0.0000e+00 1.0000e+00
       21 -1    0    0  501  503 -0.0000000000e+00 -0.0000000000e+00 -6.6848118325e+02 6.6848118325e+02 0.0000000000e+00 0.0000e+00 1.0000e+00
        6  2    1    2  501    0 -1.3996514371e+02 -1.5250232414e+02 -1.7406137305e+02 3.2149431628e+02 1.7382184410e+02 0.0000e+00 0.0000e+00
       24  2    3    3    0    0 -8.8506142200e-01 -6.8418613885e+01 -7.2241896588e+01 1.2965418646e+02 8.3122959429e+01 0.0000e+00 0.0000e+00
       -6  2    1    2    0  504 +8.4735656404e+01 +1.9507148949e+02 -3.5886948179e+02 4.5148385318e+02 1.7267700265e+02 0.0000e+00 0.0000e+00
      -24  2    5    5    0    0 +2.6193421207e+01 +1.2887010295e+02 -3.1920425940e+02 3.5450325333e+02 8.0545630857e+01 0.0000e+00 0.0000e+00
        5  1    3    3  501    0 -1.3908008229e+02 -8.4083710257e+01 -1.0181947647e+02 1.9184012982e+02 4.7000000000e+00 0.0000e+00 -1.0000e+00
      -13  1    4    4    0    0 -3.1612990150e+01 -2.1679849003e+00 -8.7235679417e+00 3.2866121499e+01 0.0000000000e+00 0.0000e+00 1.0000e+00
       14  1    4    4    0    0 +3.0727928728e+01 -6.6250628985e+01 -6.3518328646e+01 9.6788064960e+01 0.0000000000e+00 0.0000e+00 -1.0000e+00
       -5  1    5    5    0  504 +5.8542235198e+01 +6.6201386535e+01 -3.9665222394e+01 9.6980599857e+01 4.7000000000e+00 0.0000e+00 1.0000e+00
       13  1    6    6    0    0 +1.2039892028e+01 -5.2925660163e+00 -6.9038169258e+01 7.0279720187e+01 0.0000000000e+00 0.0000e+00 -1.0000e+00
      -14  1    6    6    0    0 +1.4153529179e+01 +1.3416266897e+02 -2.5016609014e+02 2.8422353314e+02 0.0000000000e+00 0.0000e+00 1.0000e+00
       21  1    1    2  504  502 +5.5229487309e+01 -4.2569165346e+01 +6.2764903384e+01 9.3818245578e+01 0.0000000000e+00 0.0000e+00 1.0000e+00
<mgrwt>
<rscale>  3 0.27069351E+03</rscale>
<asrwt>0</asrwt>
<pdfrwt beam="1">  1       21 0.30510036E-01 0.27087700E+03</pdfrwt>
<pdfrwt beam="2">  1       21 0.10284326E+00 0.27087700E+03</pdfrwt>
<totfact> 0.75303008E+03</totfact>
</mgrwt>
</event>
<event>
13      2 +1.4674046e+01 2.48387400e+02 7.54677100e-03 1.12750800e-01
       21 -1    0    0  504  502 +0.0000000000e+00 +0.0000000000e+00 +2.4860482465e+02 2.4860482465e+02 0.0000000000e+00 0.0000e+00 -1.0000e+00
       21 -1    0    0  502  503 -0.0000000000e+00 -0.0000000000e+00 -4.9678239244e+02 4.9678239244e+02 0.0000000000e+00 0.0000e+00 1.0000e+00
       -6  2    1    2    0  503 -1.5965184053e+01 -3.9703164832e+01 -2.2630194984e+02 2.8837363373e+02 1.7353832929e+02 0.0000e+00 0.0000e+00
      -24  2    3    3    0    0 -4.8394443019e+00 -6.8535545832e+01 -6.5562912476e+01 1.2462316378e+02 8.0696320817e+01 0.0000e+00 0.0000e+00
        6  2    1    2  501    0 +3.6007961240e+01 -1.4702657983e+02 -1.0361596281e+02 2.5219367602e+02 1.7306644397e+02 0.0000e+00 0.0000e+00
       24  2    5    5    0    0 +7.7033726294e+00 -1.0431646663e+02 +1.6789805076e+01 1.2125497874e+02 5.8988178090e+01 0.0000e+00 0.0000e+00
        5  1    5    5  501    0 +2.8304588611e+01 -4.2710113204e+01 -1.2040576789e+02 1.3093869729e+02 4.7000000000e+00 0.0000e+00 -1.0000e+00
      -13  1    6    6    0    0 +3.2295212372e+01 -6.9817785125e+01 +1.7465487156e+01 7.8883123059e+01 0.0000000000e+00 0.0000e+00 1.0000e+00
       14  1    6    6    0    0 -2.4591839742e+01 -3.4498681502e+01 -6.7568207935e-01 4.2371855678e+01 0.0000000000e+00 0.0000e+00 -1.0000e+00
       -5  1    3    3    0  503 -1.1125739751e+01 +2.8832381000e+01 -1.6073903736e+02 1.6375046996e+02 4.7000000000e+00 0.0000e+00 1.0000e+00
       13  1    4    4    0    0 +1.7823776240e+01 -3.9907612090e+01 -7.5093633372e+01 8.6887043195e+01 0.0000000000e+00 0.0000e+00 -1.0000e+00
      -14  1    4    4    0    0 -2.2663220542e+01 -2.8627933742e+01 +9.5307208961e+00 3.7736120580e+01 0.0000000000e+00 0.0000e+00 1.0000e+00
       21  1    1    2  504  501 -2.0042777187e+01 +1.8672974466e+02 +8.1740344860e+01 2.0481990733e+02 0.0000000000e+00 0.0000e+00 -1.0000e+00
<mgrwt>
<rscale>  3 0.22877080E+03</rscale>
<asrwt>0</asrwt>
<pdfrwt beam="1">  1       21 0.38246896E-01 0.24838743E+03</pdfrwt>
<pdfrwt beam="2">  1       21 0.76428060E-01 0.24838743E+03</pdfrwt>
<totfact> 0.97006201E+03</totfact>
</mgrwt>
</event>
<event>
11      1 +1.4674046e+01 1.82958600e+02 7.54677100e-03 1.16627000e-01
       21 -1    0    0  503  502 +0.0000000000e+00 +0.0000000000e+00 +1.0590931932e+02 1.0590931932e+02 0.0000000000e+00 0.0000e+00 1.0000e+00
       21 -1    0    0  501  503 -0.0000000000e+00 -0.0000000000e+00 -3.0686221915e+02 3.0686221915e+02 0.0000000000e+00 0.0000e+00 1.0000e+00
        6  2    1    2  501    0 -5.8238683165e+01 +1.9082903520e+01 -1.0195176964e+02 2.0474487839e+02 1.6664453328e+02 0.0000e+00 0.0000e+00
       24  2    3    3    0    0 -6.9582917021e+01 -4.2667074490e+01 -7.0319761452e+01 1.3428619995e+02 8.0160171274e+01 0.0000e+00 0.0000e+00
       -6  2    1    2    0  502 +5.8238683165e+01 -1.9082903520e+01 -9.9001130187e+01 2.0802666008e+02 1.7238899646e+02 0.0000e+00 0.0000e+00
        5  1    3    3  501    0 +1.1344233856e+01 +6.1749978010e+01 -3.1632008191e+01 7.0458678445e+01 4.7000000000e+00 0.0000e+00 -1.0000e+00
      -13  1    4    4    0    0 -3.5283195233e+01 +1.9072660914e+01 -4.2332082284e+01 5.8315310603e+01 0.0000000000e+00 0.0000e+00 1.0000e+00
       14  1    4    4    0    0 -3.4299721788e+01 -6.1739735404e+01 -2.7987679168e+01 7.5970889344e+01 0.0000000000e+00 0.0000e+00 -1.0000e+00
       -5  1    5    5    0  502 +9.0561119397e+01 +4.0573899392e+01 -7.5062535904e+01 1.2451518765e+02 4.7000000000e+00 0.0000e+00 1.0000e+00
       13  1    5    5    0    0 -2.4533056299e+01 -6.9816803298e+00 -9.8292999447e-01 2.5526082014e+01 0.0000000000e+00 0.0000e+00 -1.0000e+00
      -14  1    5    5    0    0 -7.7893799331e+00 -5.2675122582e+01 -2.2955664288e+01 5.7985390416e+01 0.0000000000e+00 0.0000e+00 1.0000e+00
<mgrwt>
<rscale>  2 0.18159289E+03</rscale>
<asrwt>0</asrwt>
<pdfrwt beam="1">  1       21 0.16293742E-01 0.18295865E+03</pdfrwt>
<pdfrwt beam="2">  1       21 0.47209572E-01 0.18295865E+03</pdfrwt>
<totfact> 0.14524231E+05</totfact>
</mgrwt>
</event>
<event>
14      3 +1.4674046e+01 1.75055300e+02 7.54677100e-03 1.17438100e-01
       21 -1    0    0  505  502 +0.0000000000e+00 +0.0000000000e+00 +2.0133969976e+02 2.0133969976e+02 0.0000000000e+00 0.0000e+00 1.0000e+00
       21 -1    0    0  502  503 -0.0000000000e+00 -0.0000000000e+00 -3.0686259782e+02 3.0686259782e+02 0.0000000000e+00 0.0000e+00 1.0000e+00
       -6  2    1    2    0  504 -1.6589407799e+01 -1.1825047236e+01 +4.1236216254e+01 1.7907021102e+02 1.7306263245e+02 0.0000e+00 0.0000e+00
      -24  2    3    3    0    0 -9.1093089960e+00 -7.7094172269e-01 +9.4500800621e+01 1.2395804290e+02 7.9697059045e+01 0.0000e+00 0.0000e+00
        6  2    1    2  501    0 -4.1289582723e+01 -1.2144538126e+01 -1.4141044653e+02 2.2251913157e+02 1.6632958270e+02 0.0000e+00 0.0000e+00
       24  2    5    5    0    0 -7.8722182609e+01 -3.8642932772e+01 -1.2948913582e+02 1.7490010069e+02 7.8308049632e+01 0.0000e+00 0.0000e+00
        5  1    5    5  501    0 +3.7432599886e+01 +2.6498394646e+01 -1.1921310704e+01 4.7619030879e+01 4.7000000000e+00 0.0000e+00 -1.0000e+00
      -13  1    6    6    0    0 -3.0113839252e+01 +2.2943467724e+01 -3.0673195490e+01 4.8724644147e+01 0.0000000000e+00 0.0000e+00 1.0000e+00
       14  1    6    6    0    0 -4.8608343356e+01 -6.1586400495e+01 -9.8815940333e+01 1.2617545654e+02 0.0000000000e+00 0.0000e+00 -1.0000e+00
       -5  1    3    3    0  504 -7.4800988031e+00 -1.1054105513e+01 -5.3264584367e+01 5.5112168117e+01 4.7000000000e+00 0.0000e+00 1.0000e+00
       13  1    4    4    0    0 -9.2514951439e+00 -3.8946710306e+01 +3.4520832178e+01 5.2859476542e+01 0.0000000000e+00 0.0000e+00 -1.0000e+00
      -14  1    4    4    0    0 +1.4218614781e-01 +3.8175768584e+01 +5.9979968444e+01 7.1098566359e+01 0.0000000000e+00 0.0000e+00 1.0000e+00
       21  1    1    2  504  503 +6.7473154100e+01 -9.0372670903e+00 -1.7268711378e+01 7.0231809839e+01 0.0000000000e+00 0.0000e+00 1.0000e+00
       21  1    1    2  505  501 -9.5941635780e+00 +3.3006852452e+01 +1.1920043585e+01 3.6381145152e+01 0.0000000000e+00 0.0000e+00 -1.0000e+00
<mgrwt>
<rscale>  4 0.17336769E+03</rscale>
<asrwt>0</asrwt>
<pdfrwt beam="1">  1       21 0.30975339E-01 0.17505528E+03</pdfrwt>
<pdfrwt beam="2">  1       21 0.47209630E-01 0.17505528E+03</pdfrwt>
<totfact> 0.43352455E+04</totfact>
</mgrwt>
</event>
<event>
12      1 +1.4674046e+01 1.92780500e+02 7.54677100e-03 1.15634300e-01
       21 -1    0    0  501  502 +0.0000000000e+00 +0.0000000000e+00 +3.7538666471e+02 3.7538666471e+02 0.0000000000e+00 0.0000e+00 1.0000e+00
       21 -1    0    0  502  503 -0.0000000000e+00 -0.0000000000e+00 -3.3308882638e+02 3.3308882638e+02 0.0000000000e+00 0.0000e+00 1.0000e+00
       -6  2    1    2    0  503 -8.2612356813e+01 -2.3039764050e+01 -2.7637411136e+02 3.3602936838e+02 1.7081409413e+02 0.0000e+00 0.0000e+00
      -24  2    3    3    0    0 -4.9165378035e+01 -9.1477935503e+00 -5.0516081621e+01 1.0723770150e+02 8.0294044588e+01 0.0000e+00 0.0000e+00
        6  2    1    2  501    0 +8.2612356813e+01 +2.3039764050e+01 +3.1867194969e+02 3.7244612272e+02 1.7265187685e+02 0.0000e+00 0.0000e+00
       24  2    5    5    0    0 +1.0655299326e+02 -2.2522633814e+01 +2.5962100941e+02 2.9397198863e+02 8.4591087984e+01 0.0000e+00 0.0000e+00
        5  1    5    5  501    0 -2.3940636443e+01 +4.5562397863e+01 +5.9050940281e+01 7.8474134085e+01 4.7000000000e+00 0.0000e+00 -1.0000e+00
      -13  1    6    6    0    0 +2.0514588965e+01 -4.4462318618e+01 +9.8739428388e+01 1.1021443125e+02 0.0000000000e+00 0.0000e+00 1.0000e+00
       14  1    6    6    0    0 +8.6038404291e+01 +2.1939684805e+01 +1.6088158102e+02 1.8375755738e+02 0.0000000000e+00 0.0000e+00 -1.0000e+00
       -5  1    3    3    0  503 -3.3446978778e+01 -1.3891970499e+01 -2.2585802974e+02 2.2879166688e+02 4.7000000000e+00 0.0000e+00 1.0000e+00
       13  1    4    4    0    0 -6.3780589696e+01 +1.4417918349e+01 -4.3807284044e+01 7.8707802198e+01 0.0000000000e+00 0.0000e+00 -1.0000e+00
      -14  1    4    4    0    0 +1.4615211661e+01 -2.3565711899e+01 -6.7087975765e+00 2.8529899301e+01 0.0000000000e+00 0.0000e+00 1.0000e+00
<mgrwt>
<rscale>  2 0.19236809E+03</rscale>
<asrwt>0</asrwt>
<pdfrwt beam="1">  1       21 0.57751795E-01 0.19278045E+03</pdfrwt>
<pdfrwt beam="2">  1       21 0.51244435E-01 0.19278045E+03</pdfrwt>
<totfact> 0.10178055E+04</totfact>
</mgrwt>
</event>
<event>
14      3 +1.4674046e+01 1.77632200e+02 7.54677100e-03 1.17021300e-01
       21 -1    0    0  504  503 +0.0000000000e+00 +0.0000000000e+00 +4.3346528022e+02 4.3346528022e+02 0.0000000000e+00 0.0000e+00 -1.0000e+00
        2 -1    0    0  503    0 -0.0000000000e+00 -0.0000000000e+00 -2.6674871840e+02 2.6674871840e+02 0.0000000000e+00 0.0000e+00 -1.0000e+00
       -6  2    1    2    0  502 -1.0402230407e+02 -4.3013610643e+01 +7.0875346256e+01 2.1827024850e+02 1.7305425805e+02 0.0000e+00 0.0000e+00
      -24  2    3    3    0    0 -2.7698877493e+00 -5.4439851962e+01 +5.6427359343e+01 1.1524867248e+02 8.4420612799e+01 0.0000e+00 0.0000e+00
        6  2    1    2  501    0 +1.9726370891e+01 -6.7410590412e+00 +1.7936881735e+02 2.4982853899e+02 1.7264574906e+02 0.0000e+00 0.0000e+00
       24  2    5    5    0    0 +1.1436118175e+00 +5.2764574882e+01 +5.9632098026e+01 1.1475370285e+02 8.2625764699e+01 0.0000e+00 0.0000e+00
        5  1    5    5  501    0 +1.8582759074e+01 -5.9505633923e+01 +1.1973671932e+02 1.3507483614e+02 4.7000000000e+00 0.0000e+00 -1.0000e+00
      -13  1    6    6    0    0 -1.6473640196e+01 +4.3797961718e+01 +7.5891504948e+01 8.9158077566e+01 0.0000000000e+00 0.0000e+00 1.0000e+00
       14  1    6    6    0    0 +1.7617252014e+01 +8.9666131639e+00 -1.6259406922e+01 2.5595625283e+01 0.0000000000e+00 0.0000e+00 -1.0000e+00
       -5  1    3    3    0  502 -1.0125241632e+02 +1.1426241320e+01 +1.4447986913e+01 1.0302157603e+02 4.7000000000e+00 0.0000e+00 1.0000e+00
       13  1    4    4    0    0 +2.4789765509e+01 +6.1192152163e+00 -3.4147518682e+00 2.5761168436e+01 0.0000000000e+00 0.0000e+00 -1.0000e+00
      -14  1    4    4    0    0 -2.7559653258e+01 -6.0559067179e+01 +5.9842111211e+01 8.9487504041e+01 0.0000000000e+00 0.0000e+00 1.0000e+00
       21  1    1    2  504  501 -2.9589533097e+01 -1.2894755187e+01 +4.0952025386e+01 5.2142914796e+01 0.0000000000e+00 0.0000e+00 1.0000e+00
        2  1    1    2  502    0 +1.1388546628e+02 +6.2649424871e+01 -1.2447962718e+02 1.7997229633e+02 0.0000000000e+00 0.0000e+00 -1.0000e+00
<mgrwt>
<rscale>  4 0.17753261E+03</rscale>
<asrwt>0</asrwt>
<pdfrwt beam="1">  1       21 0.66686966E-01 0.17763218E+03</pdfrwt>
<pdfrwt beam="2">  1        2 0.41038264E-01 0.17763218E+03</pdfrwt>
<totfact> 0.31877756E+03</totfact>
</mgrwt>
</event>
<event>
14      3 +1.4674046e+01 1.75804300e+02 7.54677100e-03 1.17199600e-01
       21 -1    0    0  501  502 +0.0000000000e+00 +0.0000000000e+00 +2.6563425778e+02 2.6563425778e+02 0.0000000000e+00 0.0000e+00 -1.0000e+00
       21 -1    0    0  505  503 -0.0000000000e+00 -0.0000000000e+00 -4.7973397285e+02 4.7973397285e+02 0.0000000000e+00 0.0000e+00 -1.0000e+00
       -6  2    1    2    0  504 -4.4038345263e+01 -1.5440365975e+01 -1.9623857363e+02 2.6589850887e+02 1.7324739099e+02 0.0000e+00 0.0000e+00
      -24  2    3    3    0    0 -1.9976781802e+01 +3.5535063857e+01 -1.8451050422e+02 2.0813094968e+02 8.7249948266e+01 0.0000e+00 0.0000e+00
        6  2    1    2  501    0 -2.3829802691e+00 -7.3922926959e+01 +1.6887230846e+01 1.8886960227e+02 1.7296320526e+02 0.0000e+00 0.0000e+00
       24  2    5    5    0    0 +1.5703128652e+01 +9.2603339227e+00 +5.2065078615e+01 9.6640901749e+01 7.9349539670e+01 0.0000e+00 0.0000e+00
        5  1    5    5  501    0 -1.8086108921e+01 -8.3183260882e+01 -3.5177847769e+01 9.2228700525e+01 4.7000000000e+00 0.0000e+00 -1.0000e+00
      -13  1    6    6    0    0 +1.0066801070e+01 +3.4193358214e+01 -3.1624758627e+00 3.5784458684e+01 0.0000000000e+00 0.0000e+00 1.0000e+00
       14  1    6    6    0    0 +5.6363275818e+00 -2.4933024291e+01 +5.5227554478e+01 6.0856443065e+01 0.0000000000e+00 0.0000e+00 -1.0000e+00
       -5  1    3    3    0  504 -2.4061563460e+01 -5.0975429833e+01 -1.1728069409e+01 5.7767559191e+01 4.7000000000e+00 0.0000e+00 1.0000e+00
       13  1    4    4    0    0 -5.3168261779e+01 +9.4814343583e+00 -9.8832083310e+01 1.1262567358e+02 0.0000000000e+00 0.0000e+00 -1.0000e+00
      -14  1    4    4    0    0 +3.3191479976e+01 +2.6053629499e+01 -8.5678420912e+01 9.5505276101e+01 0.0000000000e+00 0.0000e+00 1.0000e+00
       21  1    1    2  504  503 +3.5697977331e+01 +3.7307477525e+01 -1.5271782852e+02 1.6121082039e+02 0.0000000000e+00 0.0000e+00 -1.0000e+00
       21  1    1    2  505  502 +1.0723348201e+01 +5.2055815410e+01 +1.1796945623e+02 1.2938929909e+02 0.0000000000e+00 0.0000e+00 1.0000e+00
<mgrwt>
<rscale>  4 0.17573427E+03</rscale>
<asrwt>0</asrwt>
<pdfrwt beam="1">  1       21 0.40866809E-01 0.17580433E+03</pdfrwt>
<pdfrwt beam="2">  1       21 0.73805226E-01 0.17580433E+03</pdfrwt>
<totfact> 0.96188176E+03</totfact>
</mgrwt>
</event>
<event>
13      2 +1.4674046e+01 1.75394500e+02 7.54677100e-03 1.17263800e-01
       21 -1    0    0  501  502 +0.0000000000e+00 +0.0000000000e+00 +2.1685393315e+02 2.1685393315e+02 0.0000000000e+00 0.0000e+00 -1.0000e+00
       21 -1    0    0  502  503 -0.0000000000e+00 -0.0000000000e+00 -4.7409210780e+02 4.7409210780e+02 0.0000000000e+00 0.0000e+00 -1.0000e+00
       -6  2    1    2    0  504 +4.2294186916e+00 +1.7073738006e-01 -3.0901927642e+02 3.5438355745e+02 1.7342685910e+02 0.0000e+00 0.0000e+00
      -24  2    3    3    0    0 +4.8843443130e+01 +4.5760955862e+01 -2.2516288893e+02 2.4891857311e+02 8.2355221274e+01 0.0000e+00 0.0000e+00
        6  2    1    2  501    0 +1.4266863826e+01 +2.5938798153e+01 +1.5185259227e+02 2.3150000911e+02 1.7221114884e+02 0.0000e+00 0.0000e+00
       24  2    5    5    0    0 +4.3270498975e+01 +7.8195181410e+01 +7.3921481521e+01 1.3317763899e+02 6.5460489000e+01 0.0000e+00 0.0000e+00
        5  1    5    5  501    0 -2.9003635149e+01 -5.2256383257e+01 +7.7931110749e+01 9.8322370118e+01 4.7000000000e+00 0.0000e+00 -1.0000e+00
      -13  1    6    6    0    0 +8.3535063924e+00 +4.2182510276e+01 -1.0017406240e+00 4.3013355211e+01 0.0000000000e+00 0.0000e+00 1.0000e+00
       14  1    6    6    0    0 +3.4916992583e+01 +3.6012671134e+01 +7.4923222145e+01 9.0164283782e+01 0.0000000000e+00 0.0000e+00 -1.0000e+00
       -5  1    3    3    0  504 -4.4614024438e+01 -4.5590218482e+01 -8.3856387489e+01 1.0546498433e+02 4.7000000000e+00 0.0000e+00 1.0000e+00
       13  1    4    4    0    0 -2.8751927803e+00 +4.9501953565e+01 -1.4684091144e+02 1.5498697821e+02 0.0000000000e+00 0.0000e+00 -1.0000e+00
      -14  1    4    4    0    0 +5.1718635910e+01 -3.7409977026e+00 -7.8321977489e+01 9.3931594908e+01 0.0000000000e+00 0.0000e+00 1.0000e+00
       21  1    1    2  504  503 -1.8496282518e+01 -2.6109535533e+01 -1.0007149050e+02 1.0506247439e+02 0.0000000000e+00 0.0000e+00 -1.0000e+00
<mgrwt>
<rscale>  3 0.17509327E+03</rscale>
<asrwt>0</asrwt>
<pdfrwt beam="1">  1       21 0.33362144E-01 0.17539454E+03</pdfrwt>
<pdfrwt beam="2">  1       21 0.72937247E-01 0.17539454E+03</pdfrwt>
<totfact> 0.14803100E+04</totfact>
</mgrwt>
</event>
<event>
13      2 +1.4674046e+01 3.17025500e+02 7.54677100e-03 1.07707100e-01
       21 -1    0    0  504  502 +0.0000000000e+00 +0.0000000000e+00 +1.9619031544e+02 1.9619031544e+02 0.0000000000e+00 0.0000e+00 1.0000e+00
       21 -1    0    0  501  503 -0.0000000000e+00 -0.0000000000e+00 -7.6243996486e+02 7.6243996486e+02 0.0000000000e+00 0.0000e+00 -1.0000e+00
        6  2    1    2  501    0 +3.8168600715e+01 +2.8495343883e+02 -1.5081867050e+02 3.6821023600e+02 1.7371586612e+02 0.0000e+00 0.0000e+00
       24  2    3    3    0    0 +1.5509659111e+01 +4.1611023280e+01 -4.2440663130e+01 1.0082130332e+02 7.9948098985e+01 0.0000e+00 0.0000e+00
       -6  2    1    2    0  502 -3.8390108143e+01 -2.3981098407e+02 -1.7491952892e+02 3.4570868807e+02 1.7301603082e+02 0.0000e+00 0.0000e+00
      -24  2    5    5    0    0 -3.1551638270e+01 -8.2184851403e+01 -1.4000353914e+02 1.8404861658e+02 8.0765380056e+01 0.0000e+00 0.0000e+00
        5  1    3    3  501    0 +2.2658941604e+01 +2.4334241555e+02 -1.0837800737e+02 2.6738893268e+02 4.7000000000e+00 0.0000e+00 -1.0000e+00
      -13  1    4    4    0    0 +3.9917023982e+01 -3.3089856624e+00 -1.4769436548e+01 4.2690214870e+01 0.0000000000e+00 0.0000e+00 1.0000e+00
       14  1    4    4    0    0 -2.4407364872e+01 +4.4920008942e+01 -2.7671226582e+01 5.8131088446e+01 0.0000000000e+00 0.0000e+00 -1.0000e+00
       -5  1    5    5    0  502 -6.8384698727e+00 -1.5762613267e+02 -3.4915989781e+01 1.6166007149e+02 4.7000000000e+00 0.0000e+00 1.0000e+00
       13  1    6    6    0    0 -2.0157655513e+01 -9.6737089724e+01 -1.2914569287e+02 1.6261305480e+02 0.0000000000e+00 0.0000e+00 -1.0000e+00
      -14  1    6    6    0    0 -1.1393982757e+01 +1.4552238321e+01 -1.0857846268e+01 2.1435561779e+01 0.0000000000e+00 0.0000e+00 1.0000e+00
       21  1    1    2  504  503 +2.2150742828e-01 -4.5142454752e+01 -2.4051145000e+02 2.4471135623e+02 0.0000000000e+00 0.0000e+00 -1.0000e+00
<mgrwt>
<rscale>  3 0.31692969E+03</rscale>
<asrwt>0</asrwt>
<pdfrwt beam="1">  1       21 0.30183125E-01 0.31702546E+03</pdfrwt>
<pdfrwt beam="2">  1       21 0.11729846E+00 0.31702546E+03</pdfrwt>
<totfact> 0.54422857E+03</totfact>
</mgrwt>
</event>
<event>
13      2 +1.4674046e+01 2.98055500e+02 7.54677100e-03 1.08630600e-01
       21 -1    0    0  504  502 +0.0000000000e+00 +0.0000000000e+00 +4.6427989529e+02 4.6427989529e+02 0.0000000000e+00 0.0000e+00 1.0000e+00
       21 -1    0    0  502  503 -0.0000000000e+00 -0.0000000000e+00 -2.4208344713e+02 2.4208344713e+02 0.0000000000e+00 0.0000e+00 -1.0000e+00
       -6  2    1    2    0  503 -1.6062840139e+02 +1.7933102384e+02 -5.1421231080e+01 3.0176018509e+02 1.7451064968e+02 0.0000e+00 0.0000e+00
      -24  2    3    3    0    0 -1.3945839168e+02 +7.3439958858e+01 -1.5302782849e+01 1.8779650992e+02 1.0095188661e+02 0.0000e+00 0.0000e+00
        6  2    1    2  504    0 +1.6062840139e+02 -1.7933102384e+02 +2.7361767924e+02 4.0460315733e+02 1.7571562561e+02 0.0000e+00 0.0000e+00
       24  2    5    5    0    0 +1.9007471576e+01 -4.3249339481e+01 +5.8642394534e+01 1.0935330506e+02 7.9293288178e+01 0.0000e+00 0.0000e+00
        5  1    5    5  501    0 +6.6852249442e+01 -9.7148257453e+01 +1.2180798191e+02 1.6960625472e+02 4.7000000000e+00 0.0000e+00 -1.0000e+00
      -13  1    6    6    0    0 +4.7873784122e+01 -3.1588686587e+01 +2.2399945488e+01 6.1575172630e+01 0.0000000000e+00 0.0000e+00 1.0000e+00
       14  1    6    6    0    0 -2.8866312546e+01 -1.1660652894e+01 +3.6242449045e+01 4.7778132432e+01 0.0000000000e+00 0.0000e+00 -1.0000e+00
       -5  1    3    3    0  503 -2.1170009711e+01 +1.0589106498e+02 -3.6118448232e+01 1.1396367517e+02 4.7000000000e+00 0.0000e+00 1.0000e+00
       13  1    4    4    0    0 -1.6657257427e+01 +5.5657662929e+01 +1.5134913575e+01 6.0035866585e+01 0.0000000000e+00 0.0000e+00 -1.0000e+00
      -14  1    4    4    0    0 -1.2280113425e+02 +1.7782295929e+01 -3.0437696424e+01 1.2776064334e+02 0.0000000000e+00 0.0000e+00 1.0000e+00
       21  1    5    5  504  501 +7.4768680375e+01 -3.8933426908e+01 +9.3167302800e+01 1.2564359756e+02 0.0000000000e+00 0.0000e+00 -1.0000e+00
<mgrwt>
<rscale>  3 0.29787814E+03</rscale>
<asrwt>0</asrwt>
<pdfrwt beam="1">  1       21 0.71427676E-01 0.29805550E+03</pdfrwt>
<pdfrwt beam="2">  1       21 0.37243607E-01 0.29805550E+03</pdfrwt>
<totfact> 0.11625671E+04</totfact>
</mgrwt>
</event>
<event>
13      2 +1.4674046e+01 2.25584200e+02 7.54677100e-03 1.12978700e-01
        1 -1    0    0  502    0 +0.0000000000e+00 +0.0000000000e+00 +3.1564220942e+02 3.1564220942e+02 0.0000000000e+00 0.0000e+00 -1.0000e+00
       -1 -1    0    0    0  501 -0.0000000000e+00 -0.0000000000e+00 -1.8182554928e+02 1.8182554928e+02 0.0000000000e+00 0.0000e+00 1.0000e+00
        6  2    1    2  502    0 -1.3984172304e+02 -2.5535524499e+01 -1.6174679843e+01 2.2848702736e+02 1.7814862023e+02 0.0000e+00 0.0000e+00
       24  2    3    3    0    0 -1.0497552315e+02 -8.1579647643e+01 -3.6282286749e+01 1.5932778004e+02 7.9961476925e+01 0.0000e+00 0.0000e+00
       -6  2    1    2    0  501 +1.3984172304e+02 +2.5535524499e+01 +1.4999133999e+02 2.6898073134e+02 1.7217857371e+02 0.0000e+00 0.0000e+00
      -24  2    5    5    0    0 +3.9157676842e+01 +5.7044158222e+01 +5.0934269678e+01 1.1902970242e+02 8.2379673384e+01 0.0000e+00 0.0000e+00
        5  1    3    3  502    0 -3.4866199885e+01 +5.6044123144e+01 +2.0107606906e+01 6.9159247313e+01 4.7000000000e+00 0.0000e+00 -1.0000e+00
      -13  1    4    4    0    0 -5.9734035055e+01 -6.5671119376e+01 -5.8662651462e+01 1.0640562739e+02 0.0000000000e+00 0.0000e+00 1.0000e+00
       14  1    4    4    0    0 -4.5241488096e+01 -1.5908528268e+01 +2.2380364713e+01 5.2922152653e+01 0.0000000000e+00 0.0000e+00 -1.0000e+00
       -5  1    5    5    0  503 +7.2055654324e+01 -3.8381203552e+01 +6.1999001533e+01 1.0262114937e+02 4.7000000000e+00 0.0000e+00 1.0000e+00
       13  1    6    6    0    0 +5.5330618391e+01 +1.3146383889e+01 +4.3633632005e+01 7.1681228944e+01 0.0000000000e+00 0.0000e+00 -1.0000e+00
      -14  1    6    6    0    0 -1.6172941549e+01 +4.3897774334e+01 +7.3006376722e+00 4.7348473473e+01 0.0000000000e+00 0.0000e+00 1.0000e+00
       21  1    5    5  503  501 +2.8628391870e+01 +6.8725698293e+00 +3.7058068777e+01 4.7329879554e+01 0.0000000000e+00 0.0000e+00 -1.0000e+00
<mgrwt>
<rscale>  3 0.22558418E+03</rscale>
<asrwt>0</asrwt>
<pdfrwt beam="1">  1        1 0.48560340E-01 0.22558418E+03</pdfrwt>
<pdfrwt beam="2">  1       -1 0.27973161E-01 0.22558418E+03</pdfrwt>
<totfact> 0.94617554E+02</totfact>
</mgrwt>
</event>
<event>
12      1 +1.4674046e+01 1.97508100e+02 7.54677100e-03 1.15188700e-01
       21 -1    0    0  501  502 +0.0000000000e+00 +0.0000000000e+00 +2.1130180140e+02 2.1130180140e+02 0.0000000000e+00 0.0000e+00 1.0000e+00
       21 -1    0    0  502  503 -0.0000000000e+00 -0.0000000000e+00 -2.5769954635e+02 2.5769954635e+02 0.0000000000e+00 0.0000e+00 1.0000e+00
       -6  2    1    2    0  503 -8.7353617646e+01 +3.5105833091e+01 -1.4819084205e+02 2.4692101979e+02 1.7362715892e+02 0.0000e+00 0.0000e+00
      -24  2    3    3    0    0 -2.2376957639e+01 +8.0705539874e+01 -6.8749517383e+01 1.3451855688e+02 7.9715955771e+01 0.0000e+00 0.0000e+00
        6  2    1    2  501    0 +8.7353617646e+01 -3.5105833091e+01 +1.0179309711e+02 2.2208032796e+02 1.7347842349e+02 0.0000e+00 0.0000e+00
       24  2    5    5    0    0 +7.0938097727e+01 -6.2373205396e+01 +1.3012117165e+02 1.7921368948e+02 7.9141624476e+01 0.0000e+00 0.0000e+00
        5  1    5    5  501    0 +1.6415519920e+01 +2.7267372305e+01 -2.8328074548e+01 4.2866638477e+01 4.7000000000e+00 0.0000e+00 -1.0000e+00
      -13  1    6    6    0    0 +7.8446173281e+01 -2.3232545506e+01 +7.3555357842e+01 1.1001792554e+02 0.0000000000e+00 0.0000e+00 1.0000e+00
       14  1    6    6    0    0 -7.5080755539e+00 -3.9140659891e+01 +5.6565813812e+01 6.9195763941e+01 0.0000000000e+00 0.0000e+00 -1.0000e+00
       -5  1    3    3    0  503 -6.4976660008e+01 -4.5599706783e+01 -7.9441324666e+01 1.1240246291e+02 4.7000000000e+00 0.0000e+00 1.0000e+00
       13  1    4    4    0    0 -3.1964015709e+01 +8.1439642214e+01 -2.6828384572e+01 9.1508883957e+01 0.0000000000e+00 0.0000e+00 -1.0000e+00
      -14  1    4    4    0    0 +9.5870580707e+00 -7.3410233956e-01 -4.1921132810e+01 4.3009672921e+01 0.0000000000e+00 0.0000e+00 1.0000e+00
<mgrwt>
<rscale>  2 0.19747544E+03</rscale>
<asrwt>0</asrwt>
<pdfrwt beam="1">  1       21 0.32507969E-01 0.19750814E+03</pdfrwt>
<pdfrwt beam="2">  1       21 0.39646084E-01 0.19750814E+03</pdfrwt>
<totfact> 0.55715984E+04</totfact>
</mgrwt>
</event>
<event>
13      2 +1.4674046e+01 2.19611700e+02 7.54677100e-03 1.13429100e-01
       21 -1    0    0  503  502 +0.0000000000e+00 +0.0000000000e+00 +1.3920241587e+03 1.3920241587e+03 0.0000000000e+00 0.0000e+00 -1.0000e+00
       21 -1    0    0  504  503 -0.0000000000e+00 -0.0000000000e+00 -5.7347544818e+01 5.7347544818e+01 0.0000000000e+00 0.0000e+00 -1.0000e+00
        6  2    1    2  501    0 -1.4266371693e+02 -2.6393652675e+01 +9.9722761311e+02 1.0224110166e+03 1.7266097866e+02 0.0000e+00 0.0000e+00
       24  2    3    3    0    0 -8.6684560517e+01 +3.1544042079e+01 +3.6055587442e+02 3.8064514400e+02 7.9880832808e+01 0.0000e+00 0.0000e+00
       -6  2    1    2    0  502 +1.0950176644e+02 +1.6054586899e+01 +3.3368303136e+02 3.9202082763e+02 1.7345771030e+02 0.0000e+00 0.0000e+00
      -24  2    5    5    0    0 +1.1763154954e+02 -3.4667776328e+01 +2.8942607911e+02 3.2405304609e+02 7.8764746238e+01 0.0000e+00 0.0000e+00
        5  1    3    3  501    0 -5.5979156410e+01 -5.7937694754e+01 +6.3667173869e+02 6.4176587263e+02 4.7000000000e+00 0.0000e+00 -1.0000e+00
      -13  1    4    4    0    0 -2.5734784384e+01 -2.1151185787e+01 +1.7814250351e+02 1.8123024953e+02 0.0000000000e+00 0.0000e+00 1.0000e+00
       14  1    4    4    0    0 -6.0949776134e+01 +5.2695227866e+01 +1.8241337091e+02 1.9941489447e+02 0.0000000000e+00 0.0000e+00 -1.0000e+00
       -5  1    5    5    0  502 -8.1297830967e+00 +5.0722363227e+01 +4.4256952243e+01 6.7967781532e+01 4.7000000000e+00 0.0000e+00 1.0000e+00
       13  1    6    6    0    0 +6.9699803144e+01 -1.0217648218e+01 +7.4655005962e+01 1.0264420494e+02 0.0000000000e+00 0.0000e+00 -1.0000e+00
      -14  1    6    6    0    0 +4.7931746393e+01 -2.4450128111e+01 +2.1477107315e+02 2.2140884115e+02 0.0000000000e+00 0.0000e+00 1.0000e+00
       21  1    1    2  504  501 +3.3161950487e+01 +1.0339065777e+01 +3.7659694426e+00 3.4939859288e+01 0.0000000000e+00 0.0000e+00 -1.0000e+00
<mgrwt>
<rscale>  3 0.21945430E+03</rscale>
<asrwt>0</asrwt>
<pdfrwt beam="1">  1       21 0.21415754E+00 0.21961165E+03</pdfrwt>
<pdfrwt beam="2">  1       21 0.88227002E-02 0.21961165E+03</pdfrwt>
<totfact> 0.10812587E+04</totfact>
</mgrwt>
</event>
<event>
11      2 +1.4674046e+01 5.61858200e+02 7.54677100e-03 1.03336800e-01
       21 -1    0    0  504  502 +0.0000000000e+00 +0.0000000000e+00 +4.7955957755e+02 4.7955957755e+02 0.0000000000e+00 0.0000e+00 -1.0000e+00
       21 -1    0    0  501  503 -0.0000000000e+00 -0.0000000000e+00 -1.1951579583e+03 1.1951579583e+03 0.0000000000e+00 0.0000e+00 -1.0000e+00
       24  2    1    2    0    0 +5.5025081847e+01 -9.9426160642e+01 -1.6257086356e+02 2.1118689329e+02 7.2507221491e+01 0.0000e+00 0.0000e+00
      -24  2    1    2    0    0 +4.5313610052e+01 +1.8956293162e+01 +3.5974136401e+01 9.9736616669e+01 7.8997404440e+01 0.0000e+00 0.0000e+00
        5  1    1    2  501    0 -1.6491678341e+02 +4.0141751975e+00 +3.4760223722e+02 3.8478963652e+02 4.7000000000e+00 0.0000e+00 -1.0000e+00
      -13  1    3    3    0    0 +1.1387670063e+01 -8.6334076019e+01 -8.8021845459e+01 1.2381880709e+02 0.0000000000e+00 0.0000e+00 1.0000e+00
       14  1    3    3    0    0 +4.3637411784e+01 -1.3092084623e+01 -7.4549018100e+01 8.7368086203e+01 0.0000000000e+00 0.0000e+00 -1.0000e+00
       -5  1    1    2    0  502 +7.6641777549e+01 -1.9156061261e-01 -5.6119297338e+01 9.5107645828e+01 4.7000000000e+00 0.0000e+00 1.0000e+00
       13  1    4    4    0    0 -1.3524231268e+01 +2.1438780273e+01 +3.1845175149e+01 4.0701858818e+01 0.0000000000e+00 0.0000e+00 -1.0000e+00
      -14  1    4    4    0    0 +5.8837841320e+01 -2.4824871105e+00 +4.1289612529e+00 5.9034757851e+01 0.0000000000e+00 0.0000e+00 1.0000e+00
       21  1    1    2  504  503 -1.2063686034e+01 +7.6647252895e+01 -8.8048459351e+02 8.8389674357e+02 0.0000000000e+00 0.0000e+00 -1.0000e+00
<mgrwt>
<rscale>  3 0.43156213E+03</rscale>
<asrwt>0</asrwt>
<pdfrwt beam="1">  1       21 0.73778396E-01 0.56185816E+03</pdfrwt>
<pdfrwt beam="2">  1       21 0.18387046E+00 0.56185816E+03</pdfrwt>
<totfact> 0.21836835E+02</totfact>
</mgrwt>
</event>
<event>
13      2 +1.4674046e+01 2.34799700e+02 7.54677100e-03 1.12497700e-01
       21 -1    0    0  501  502 +0.0000000000e+00 +0.0000000000e+00 +1.4054832597e+03 1.4054832597e+03 0.0000000000e+00 0.0000e+00 1.0000e+00
       21 -1    0    0  504  503 -0.0000000000e+00 -0.0000000000e+00 -6.8079212964e+01 6.8079212964e+01 0.0000000000e+00 0.0000e+00 1.0000e+00
       -6  2    1    2    0  503 -1.1461579275e+02 -5.0637297700e+01 +2.9397436112e+02 3.6347024344e+02 1.7317267974e+02 0.0000e+00 0.0000e+00
      -24  2    3    3    0    0 -2.8826802661e+00 -6.0730494322e+01 +1.4751424438e+02 1.7891993367e+02 8.0965348037e+01 0.0000e+00 0.0000e+00
        6  2    1    2  501    0 +1.2132372234e+02 +9.2337113616e+01 +1.0404161721e+03 1.0677489626e+03 1.8540886634e+02 0.0000e+00 0.0000e+00
       24  2    5    5    0    0 +1.0677735175e+01 -1.7858348460e+01 +4.1710506987e+02 4.2515702788e+02 7.9680138125e+01 0.0000e+00 0.0000e+00
        5  1    5    5  501    0 +1.1064598716e+02 +1.1019546208e+02 +6.2331110224e+02 6.4259193468e+02 4.7000000000e+00 0.0000e+00 -1.0000e+00
      -13  1    6    6    0    0 +3.6017728285e+01 -3.3813957718e+01 +2.0074985175e+02 2.0673936119e+02 0.0000000000e+00 0.0000e+00 1.0000e+00
       14  1    6    6    0    0 -2.5339993110e+01 +1.5955609257e+01 +2.1635521812e+02 2.1841766670e+02 0.0000000000e+00 0.0000e+00 -1.0000e+00
       -5  1    3    3    0  503 -1.1173311248e+02 +1.0093196622e+01 +1.4646011674e+02 1.8455030977e+02 4.7000000000e+00 0.0000e+00 1.0000e+00
       13  1    4    4    0    0 -1.9892073388e+01 -2.2140374391e+01 +1.2981589400e+02 1.3318429749e+02 0.0000000000e+00 0.0000e+00 -1.0000e+00
      -14  1    4    4    0    0 +1.7009393122e+01 -3.8590119931e+01 +1.7698350378e+01 4.5735636179e+01 0.0000000000e+00 0.0000e+00 1.0000e+00
       21  1    1    2  504  502 -6.7079295873e+00 -4.1699815916e+01 +3.0135134979e+00 4.2343266648e+01 0.0000000000e+00 0.0000e+00 1.0000e+00
<mgrwt>
<rscale>  3 0.23237826E+03</rscale>
<asrwt>0</asrwt>
<pdfrwt beam="1">  1       21 0.21622817E+00 0.23479974E+03</pdfrwt>
<pdfrwt beam="2">  1       21 0.10473726E-01 0.23479974E+03</pdfrwt>
<totfact> 0.76571509E+03</totfact>
</mgrwt>
</event>
<event>
13      2 +1.4674046e+01 2.23651600e+02 7.54677100e-03 1.13154900e-01
       21 -1    0    0  504  502 +0.0000000000e+00 +0.0000000000e+00 +4.6492110703e+02 4.6492110703e+02 0.0000000000e+00 0.0000e+00 1.0000e+00
       21 -1    0    0  501  503 -0.0000000000e+00 -0.0000000000e+00 -1.3737345620e+02 1.3737345620e+02 0.0000000000e+00 0.0000e+00 1.0000e+00
        6  2    1    2  501    0 -8.2252535425e+01 +1.2893620597e+02 +2.1086637935e+02 3.1158346744e+02 1.7096667058e+02 0.0000e+00 0.0000e+00
       24  2    3    3    0    0 -1.2299801275e+02 +9.9308147004e+01 +1.7701437300e+02 2.5070601566e+02 8.0800982908e+01 0.0000e+00 0.0000e+00
       -6  2    1    2    0  502 +6.7590392337e+01 -1.0799379787e+02 +1.3944869796e+02 2.5647779906e+02 1.7350446835e+02 0.0000e+00 0.0000e+00
      -24  2    5    5    0    0 -1.5066275884e+01 -5.4591388346e+01 +1.2221132248e+02 1.5646200402e+02 7.9608661658e+01 0.0000e+00 0.0000e+00
        5  1    3    3  501    0 +4.0745477328e+01 +2.9628058968e+01 +3.3852006349e+01 6.0877451776e+01 4.7000000000e+00 0.0000e+00 -1.0000e+00
      -13  1    4    4    0    0 +4.4116485556e+00 +2.0806847596e+01 +3.4741048150e+00 2.1551263400e+01 0.0000000000e+00 0.0000e+00 1.0000e+00
       14  1    4    4    0    0 -1.2740966131e+02 +7.8501299408e+01 +1.7354026818e+02 2.2915475226e+02 0.0000000000e+00 0.0000e+00 -1.0000e+00
       -5  1    5    5    0  502 +8.2656668221e+01 -5.3402409519e+01 +1.7237375478e+01 1.0001579504e+02 4.7000000000e+00 0.0000e+00 1.0000e+00
       13  1    6    6    0    0 -1.2444689700e+01 +1.2530092048e+01 +6.7665810917e+01 6.9932363578e+01 0.0000000000e+00 0.0000e+00 -1.0000e+00
      -14  1    6    6    0    0 -2.6215861841e+00 -6.7121480395e+01 +5.4545511559e+01 8.6529640446e+01 0.0000000000e+00 0.0000e+00 1.0000e+00
       21  1    1    2  504  503 +1.4662143088e+01 -2.0942408106e+01 -2.2767426466e+01 3.4233296732e+01 0.0000000000e+00 0.0000e+00 1.0000e+00
<mgrwt>
<rscale>  3 0.22315925E+03</rscale>
<asrwt>0</asrwt>
<pdfrwt beam="1">  1       21 0.71526323E-01 0.22365162E+03</pdfrwt>
<pdfrwt beam="2">  1       21 0.21134378E-01 0.22365162E+03</pdfrwt>
<totfact> 0.36195779E+04</totfact>
</mgrwt>
</event>
<event>
14      3 +1.4674046e+01 2.29518000e+02 7.54677100e-03 1.12719800e-01
       -2 -1    0    0    0  501 -0.0000000000e+00 +0.0000000000e+00 +5.6423687426e+02 5.6423687426e+02 0.0000000000e+00 0.0000e+00 1.0000e+00
       21 -1    0    0  504  503 +0.0000000000e+00 -0.0000000000e+00 -3.3178846742e+02 3.3178846742e+02 0.0000000000e+00 0.0000e+00 1.0000e+00
       -6  2    1    2    0  501 +1.9735600165e+02 +5.0474105745e+01 -1.6892896971e+02 3.1668338606e+02 1.7393775744e+02 0.0000e+00 0.0000e+00
      -24  2    3    3    0    0 +1.5202521206e+02 -9.8301375425e+00 -5.6757616130e+01 1.8142073487e+02 8.0521794238e+01 0.0000e+00 0.0000e+00
        6  2    1    2  502    0 -1.4783884529e+02 -3.6606246085e+01 +2.0529360139e+02 3.0827058251e+02 1.7230481084e+02 0.0000e+00 0.0000e+00
       24  2    5    5    0    0 -1.6978649891e+02 -1.5161171875e+01 +1.3648548648e+02 2.3278391227e+02 8.0639602228e+01 0.0000e+00 0.0000e+00
        5  1    5    5  502    0 +2.1947653612e+01 -2.1445074210e+01 +6.8808114910e+01 7.5486670243e+01 4.7000000000e+00 0.0000e+00 -1.0000e+00
      -13  1    6    6    0    0 -6.7254705707e+01 -3.9255056809e+01 +8.5892165632e+01 1.1593799654e+02 0.0000000000e+00 0.0000e+00 1.0000e+00
       14  1    6    6    0    0 -1.0253179320e+02 +2.4093884933e+01 +5.0593320848e+01 1.1684591573e+02 0.0000000000e+00 0.0000e+00 -1.0000e+00
       -5  1    3    3    0  501 +4.5330789592e+01 +6.0304243288e+01 -1.1217135358e+02 1.3526265119e+02 4.7000000000e+00 0.0000e+00 1.0000e+00
       13  1    4    4    0    0 +7.3324928355e+01 -3.7603981394e+01 -5.2800247661e+01 9.7869661734e+01 0.0000000000e+00 0.0000e+00 -1.0000e+00
      -14  1    4    4    0    0 +7.8700283703e+01 +2.7773843852e+01 -3.9573684693e+00 8.3551073137e+01 0.0000000000e+00 0.0000e+00 1.0000e+00
       21  1    1    2  504  502 -7.2991914422e+01 -3.5405426502e+00 -2.4148026664e-01 7.3078131654e+01 0.0000000000e+00 0.0000e+00 1.0000e+00
       -2  1    1    2    0  503 +2.3474758066e+01 -1.0327317010e+01 +1.9632525543e+02 1.9799324145e+02 0.0000000000e+00 0.0000e+00 1.0000e+00
<mgrwt>
<rscale>  4 0.22920864E+03</rscale>
<asrwt>0</asrwt>
<pdfrwt beam="2">  1       21 0.51044380E-01 0.22951802E+03</pdfrwt>
<pdfrwt beam="1">  1       -2 0.86805673E-01 0.22951802E+03</pdfrwt>
<totfact> 0.34920072E+02</totfact>
</mgrwt>
</event>
<event>
12      1 +1.4674046e+01 3.25398300e+02 7.54677100e-03 1.07360800e-01
       21 -1    0    0  503  502 +0.0000000000e+00 +0.0000000000e+00 +6.3800576144e+02 6.3800576144e+02 0.0000000000e+00 0.0000e+00 -1.0000e+00
       21 -1    0    0  501  503 -0.0000000000e+00 -0.0000000000e+00 -2.2812214605e+02 2.2812214605e+02 0.0000000000e+00 0.0000e+00 1.0000e+00
        6  2    1    2  501    0 -1.4862789818e+02 +2.2455808635e+02 -2.5331190250e+01 3.2271649940e+02 1.7603318869e+02 0.0000e+00 0.0000e+00
       24  2    3    3    0    0 -1.7230064726e+02 +1.6790931870e+02 +4.8463309874e+00 2.5414351118e+02 8.1758088258e+01 0.0000e+00 0.0000e+00
       -6  2    1    2    0  502 +1.4862789818e+02 -2.2455808635e+02 +4.3521480564e+02 5.4341140810e+02 1.8266758098e+02 0.0000e+00 0.0000e+00
      -24  2    5    5    0    0 +1.3210369131e+02 -1.7471834170e+02 +4.3191235536e+02 4.9059052456e+02 7.8440397070e+01 0.0000e+00 0.0000e+00
        5  1    3    3  501    0 +2.3672749084e+01 +5.6648767647e+01 -3.0177521238e+01 6.8572988218e+01 4.7000000000e+00 0.0000e+00 -1.0000e+00
      -13  1    4    4    0    0 -7.4219050288e+01 +9.5097591212e+01 -3.5082247411e+01 1.2562954813e+02 0.0000000000e+00 0.0000e+00 1.0000e+00
       14  1    4    4    0    0 -9.8081596977e+01 +7.2811727489e+01 +3.9928578398e+01 1.2851396305e+02 0.0000000000e+00 0.0000e+00 -1.0000e+00
       -5  1    5    5    0  502 +1.6524206869e+01 -4.9839744652e+01 +3.3024502778e+00 5.2820883535e+01 4.7000000000e+00 0.0000e+00 1.0000e+00
       13  1    6    6    0    0 -1.0333768379e+01 -7.1205590969e+00 +2.7729119890e+01 3.0436708439e+01 0.0000000000e+00 0.0000e+00 -1.0000e+00
      -14  1    6    6    0    0 +1.4243745969e+02 -1.6759778260e+02 +4.0418323547e+02 4.6015381612e+02 0.0000000000e+00 0.0000e+00 1.0000e+00
<mgrwt>
<rscale>  2 0.32447498E+03</rscale>
<asrwt>0</asrwt>
<pdfrwt beam="1">  1       21 0.98154732E-01 0.32539827E+03</pdfrwt>
<pdfrwt beam="2">  1       21 0.35095715E-01 0.32539827E+03</pdfrwt>
<totfact> 0.62066934E+03</totfact>
</mgrwt>
</event>
<event>
13      3 +1.4674046e+01 4.60394100e+02 7.54677100e-03 1.05588200e-01
       21 -1    0    0  501  503 +0.0000000000e+00 +0.0000000000e+00 +2.7274457191e+02 2.7274457191e+02 0.0000000000e+00 0.0000e+00 1.0000e+00
       -4 -1    0    0    0  501 -0.0000000000e+00 -0.0000000000e+00 -8.2094432307e+02 8.2094432307e+02 0.0000000000e+00 0.0000e+00 1.0000e+00
        6  2    1    2  502    0 +3.6724642278e+01 +3.5724501175e+01 +2.0912815878e+01 1.8102492410e+02 1.7235932798e+02 0.0000e+00 0.0000e+00
       24  2    3    3    0    0 -2.8519128340e+01 -2.3243046382e+01 -3.3756409615e+00 8.9668805502e+01 8.1703854510e+01 0.0000e+00 0.0000e+00
      -24  2    1    2    0    0 +1.7713977183e+02 -1.7953335921e+02 -5.1671529480e+01 2.6916856882e+02 7.8556003270e+01 0.0000e+00 0.0000e+00
        5  1    3    3  502    0 +6.5243770618e+01 +5.8967547558e+01 +2.4288456840e+01 9.1356118597e+01 4.7000000000e+00 0.0000e+00 -1.0000e+00
      -13  1    4    4    0    0 +7.9213073632e+00 +2.4452631454e+01 +1.0983413542e+01 2.7951988630e+01 0.0000000000e+00 0.0000e+00 1.0000e+00
       14  1    4    4    0    0 -3.6440435703e+01 -4.7695677836e+01 -1.4359054504e+01 6.1716816871e+01 0.0000000000e+00 0.0000e+00 -1.0000e+00
       -5  1    1    2    0  503 -1.1997794610e+02 +8.2740327936e+01 -2.4669118835e+02 2.8656465558e+02 4.7000000000e+00 0.0000e+00 1.0000e+00
       13  1    5    5    0    0 +1.5907906461e+02 -1.3170385636e+02 -6.4677266483e+01 2.1641442507e+02 0.0000000000e+00 0.0000e+00 -1.0000e+00
      -14  1    5    5    0    0 +1.8060707217e+01 -4.7829502851e+01 +1.3005737004e+01 5.2754143754e+01 0.0000000000e+00 0.0000e+00 1.0000e+00
       21  1    1    2  504  502 -5.4457906252e+01 +9.0236669529e+01 -2.7690846633e+01 1.0897294650e+02 0.0000000000e+00 0.0000e+00 1.0000e+00
       -4  1    1    2    0  504 -3.9428561756e+01 -2.9168139428e+01 -2.4305900258e+02 2.4795779999e+02 0.0000000000e+00 0.0000e+00 1.0000e+00
<mgrwt>
<rscale>  4 0.36690654E+03</rscale>
<asrwt>0</asrwt>
<pdfrwt beam="1">  1       21 0.41960704E-01 0.46039413E+03</pdfrwt>
<pdfrwt beam="2">  1       -4 0.12629912E+00 0.46039413E+03</pdfrwt>
<totfact> 0.10741055E+02</totfact>
</mgrwt>
</event>
<event>
13      2 +1.4674046e+01 1.87163300e+02 7.54677100e-03 1.16152200e-01
       21 -1    0    0  503  502 +0.0000000000e+00 +0.0000000000e+00 +3.6022795488e+02 3.6022795488e+02 0.0000000000e+00 0.0000e+00 -1.0000e+00
       21 -1    0    0  504  503 -0.0000000000e+00 -0.0000000000e+00 -9.6628193823e+01 9.6628193823e+01 0.0000000000e+00 0.0000e+00 1.0000e+00
        6  2    1    2  504    0 -6.1605633804e+01 +3.6498115932e+01 +1.4813891808e+02 2.3869483944e+02 1.7292403171e+02 0.0000e+00 0.0000e+00
       24  2    3    3    0    0 +2.0669475013e+01 +4.8324191240e+01 +6.1578193412e+01 1.1450370454e+02 8.0973883409e+01 0.0000e+00 0.0000e+00
       -6  2    1    2    0  502 +6.1605633804e+01 -3.6498115932e+01 +1.1546084298e+02 2.1816130926e+02 1.7069207368e+02 0.0000e+00 0.0000e+00
      -24  2    5    5    0    0 +2.8056266155e+01 +3.8897492356e+01 +9.3280668396e+01 1.3258030691e+02 8.1093068155e+01 0.0000e+00 0.0000e+00
        5  1    3    3  501    0 -5.8775805818e+01 -2.1057581262e+01 +7.0402008149e+01 9.4215443689e+01 4.7000000000e+00 0.0000e+00 -1.0000e+00
      -13  1    4    4    0    0 +1.3409987707e+00 +1.9295337671e+01 -1.8745826842e+01 2.6935373722e+01 0.0000000000e+00 0.0000e+00 1.0000e+00
       14  1    4    4    0    0 +1.9328476242e+01 +2.9028853569e+01 +8.0324020253e+01 8.7568330823e+01 0.0000000000e+00 0.0000e+00 -1.0000e+00
       -5  1    5    5    0  502 +3.3549367649e+01 -7.5395608288e+01 +2.2180174580e+01 8.5581002350e+01 4.7000000000e+00 0.0000e+00 1.0000e+00
       13  1    6    6    0    0 +3.1746047410e+00 -2.4717865782e+01 +3.3871606068e+01 4.2051595710e+01 0.0000000000e+00 0.0000e+00 -1.0000e+00
      -14  1    6    6    0    0 +2.4881661414e+01 +6.3615358137e+01 +5.9409062327e+01 9.0528711204e+01 0.0000000000e+00 0.0000e+00 1.0000e+00
       21  1    3    3  504  501 -2.3499303000e+01 +9.2315059539e+00 +1.6158716518e+01 2.9975691204e+01 0.0000000000e+00 0.0000e+00 -1.0000e+00
<mgrwt>
<rscale>  3 0.18664608E+03</rscale>
<asrwt>0</asrwt>
<pdfrwt beam="1">  1       21 0.55419685E-01 0.18716326E+03</pdfrwt>
<pdfrwt beam="2">  1       21 0.14865876E-01 0.18716326E+03</pdfrwt>
<totfact> 0.12262963E+05</totfact>
</mgrwt>
</event>
<event>
14      3 +1.4674046e+01 1.84254400e+02 7.54677100e-03 1.16467900e-01
       21 -1    0    0  502  503 +0.0000000000e+00 +0.0000000000e+00 +8.3053584459e+02 8.3053584459e+02 0.0000000000e+00 0.0000e+00 -1.0000e+00
        2 -1    0    0  501    0 -0.0000000000e+00 -0.0000000000e+00 -9.5123969603e+02 9.5123969603e+02 0.0000000000e+00 0.0000e+00 1.0000e+00
        6  2    1    2  501    0 +3.9285332791e+01 +7.6574877517e+00 +3.6941442562e+02 4.0979060548e+02 1.7279857637e+02 0.0000e+00 0.0000e+00
       24  2    3    3    0    0 +3.5637116718e+01 -5.7698119551e+01 +2.7900959941e+02 2.9807763628e+02 8.0030266759e+01 0.0000e+00 0.0000e+00
       -6  2    1    2    0  504 +2.9581706918e+01 +1.5957735529e+01 -1.1764664100e+02 2.1507926507e+02 1.7688592769e+02 0.0000e+00 0.0000e+00
      -24  2    5    5    0    0 +4.7386195249e+01 +4.9265643187e+01 -2.2033977473e+01 1.1217014037e+02 8.6163154130e+01 0.0000e+00 0.0000e+00
        5  1    3    3  501    0 +3.6482160729e+00 +6.5355607303e+01 +9.0404826205e+01 1.1171296920e+02 4.7000000000e+00 0.0000e+00 -1.0000e+00
      -13  1    4    4    0    0 +3.9361032476e+01 -8.0778880135e-01 +5.9954985466e+01 7.1725474432e+01 0.0000000000e+00 0.0000e+00 1.0000e+00
       14  1    4    4    0    0 -3.7239157579e+00 -5.6890330750e+01 +2.1905461394e+02 2.2635216185e+02 0.0000000000e+00 0.0000e+00 -1.0000e+00
       -5  1    5    5    0  504 -1.7804488331e+01 -3.3307907658e+01 -9.5612663531e+01 1.0290912469e+02 4.7000000000e+00 0.0000e+00 1.0000e+00
       13  1    6    6    0    0 +2.1581866571e+01 -2.3847554179e+01 -2.7885260006e+00 3.2284031382e+01 0.0000000000e+00 0.0000e+00 -1.0000e+00
      -14  1    6    6    0    0 +2.5804328679e+01 +7.3113197366e+01 -1.9245451473e+01 7.9886108993e+01 0.0000000000e+00 0.0000e+00 1.0000e+00
       21  1    1    2  504  503 -6.7723567302e+01 +5.8917271644e+01 +3.8480897089e+02 3.9514006446e+02 0.0000000000e+00 0.0000e+00 -1.0000e+00
        2  1    1    2  502    0 -1.1434724074e+00 -8.2532494924e+01 -7.5728060694e+02 7.6176560561e+02 0.0000000000e+00 0.0000e+00 1.0000e+00
<mgrwt>
<rscale>  4 0.18326645E+03</rscale>
<asrwt>0</asrwt>
<pdfrwt beam="1">  1       21 0.12777475E+00 0.18425444E+03</pdfrwt>
<pdfrwt beam="2">  1        2 0.14634457E+00 0.18425444E+03</pdfrwt>
<totfact> 0.16271875E+02</totfact>
</mgrwt>
</event>
<event>
13      2 +1.4674046e+01 2.34122500e+02 7.54677100e-03 1.12419300e-01
       21 -1    0    0  501  502 +0.0000000000e+00 +0.0000000000e+00 +1.1535209041e+02 1.1535209041e+02 0.0000000000e+00 0.0000e+00 1.0000e+00
       21 -1    0    0  504  503 -0.0000000000e+00 -0.0000000000e+00 -2.8492377173e+03 2.8492377173e+03 0.0000000000e+00 0.0000e+00 1.0000e+00
       -6  2    1    2    0  503 +1.1586256333e+02 -1.2227118842e+02 -9.2501378560e+01 2.5806857638e+02 1.7224548755e+02 0.0000e+00 0.0000e+00
      -24  2    3    3    0    0 +7.4602746388e+01 -1.2918309768e+02 -1.2098529784e+02 2.0723973967e+02 7.7826890673e+01 0.0000e+00 0.0000e+00
        6  2    1    2  501    0 +2.7448281825e-01 +1.5299468315e+02 -4.0688002496e+02 4.6879004307e+02 1.7551439074e+02 0.0000e+00 0.0000e+00
       24  2    5    5    0    0 +4.8110594691e+00 +3.4989147927e+00 -1.0265747217e+02 1.2975757131e+02 7.9139636219e+01 0.0000e+00 0.0000e+00
        5  1    5    5  501    0 -4.5365766508e+00 +1.4949576836e+02 -3.0422255279e+02 3.3903247176e+02 4.7000000000e+00 0.0000e+00 -1.0000e+00
      -13  1    6    6    0    0 -2.8235494710e+01 +2.6773990251e+01 -4.8532688601e+01 6.2205398306e+01 0.0000000000e+00 0.0000e+00 1.0000e+00
       14  1    6    6    0    0 +3.3046554179e+01 -2.3275075459e+01 -5.4124783573e+01 6.7552173004e+01 0.0000000000e+00 0.0000e+00 -1.0000e+00
       -5  1    3    3    0  503 +4.1259816943e+01 +6.9119092582e+00 +2.8483919281e+01 5.0828836711e+01 4.7000000000e+00 0.0000e+00 1.0000e+00
       13  1    4    4    0    0 -1.0067022283e+01 -2.2279296244e+01 -4.4781741694e+01 5.1020744486e+01 0.0000000000e+00 0.0000e+00 -1.0000e+00
      -14  1    4    4    0    0 +8.4669768671e+01 -1.0690380143e+02 -7.6203556147e+01 1.5621899519e+02 0.0000000000e+00 0.0000e+00 1.0000e+00
       21  1    1    2  504  502 -1.1613704615e+02 -3.0723494731e+01 -2.2345042234e+03 2.2377311883e+03 0.0000000000e+00 0.0000e+00 1.0000e+00
<mgrwt>
<rscale>  3 0.23350997E+03</rscale>
<asrwt>0</asrwt>
<pdfrwt beam="1">  1       21 0.17746477E-01 0.23412249E+03</pdfrwt>
<pdfrwt beam="2">  1       21 0.43834422E+00 0.23412249E+03</pdfrwt>
<totfact> 0.13352116E+02</totfact>
</mgrwt>
</event>
<event>
13      2 +1.4674046e+01 2.48960900e+02 7.54677100e-03 1.11445700e-01
       21 -1    0    0  504  502 +0.0000000000e+00 +0.0000000000e+00 +4.5545640168e+02 4.5545640168e+02 0.0000000000e+00 0.0000e+00 1.0000e+00
       21 -1    0    0  502  503 -0.0000000000e+00 -0.0000000000e+00 -5.6389023053e+02 5.6389023053e+02 0.0000000000e+00 0.0000e+00 -1.0000e+00
        6  2    1    2  501    0 +1.9713663832e+02 -9.6722301417e-01 +4.2986198841e+01 2.7048707849e+02 1.8014343354e+02 0.0000e+00 0.0000e+00
       24  2    3    3    0    0 +1.5951971699e+01 +1.7846853876e+01 +5.4295895140e+00 8.4437510326e+01 8.0791318304e+01 0.0000e+00 0.0000e+00
       -6  2    1    2    0  503 -1.6657227254e+02 +5.9607663001e-01 -4.1661363698e+02 4.8191017910e+02 1.7585170151e+02 0.0000e+00 0.0000e+00
      -24  2    5    5    0    0 -1.6891287834e+02 -4.4322998584e+01 -2.9338844867e+02 3.5064807952e+02 7.9882446046e+01 0.0000e+00 0.0000e+00
        5  1    3    3  501    0 +1.8118466662e+02 -1.8814076890e+01 +3.7556609327e+01 1.8604956816e+02 4.7000000000e+00 0.0000e+00 -1.0000e+00
      -13  1    4    4    0    0 +3.2774693563e+01 +4.1558858917e+01 +1.2781540888e+01 5.4448940120e+01 0.0000000000e+00 0.0000e+00 1.0000e+00
       14  1    4    4    0    0 -1.6822721864e+01 -2.3712005041e+01 -7.3519513738e+00 2.9988570206e+01 0.0000000000e+00 0.0000e+00 -1.0000e+00
       -5  1    5    5    0  503 +2.3406058017e+00 +4.4919075214e+01 -1.2322518831e+02 1.3126209958e+02 4.7000000000e+00 0.0000e+00 1.0000e+00
       13  1    6    6    0    0 -2.7915566435e+01 -4.2583604248e+01 -7.2707814181e+01 8.8764116867e+01 0.0000000000e+00 0.0000e+00 -1.0000e+00
      -14  1    6    6    0    0 -1.4099731190e+02 -1.7393943352e+00 -2.2068063449e+02 2.6188396266e+02 0.0000000000e+00 0.0000e+00 1.0000e+00
       21  1    1    2  504  501 -3.0564365786e+01 +3.7114638416e-01 +2.6519360929e+02 2.6694937463e+02 0.0000000000e+00 0.0000e+00 1.0000e+00
<mgrwt>
<rscale>  3 0.24818538E+03</rscale>
<asrwt>0</asrwt>
<pdfrwt beam="1">  1       21 0.70070216E-01 0.24896089E+03</pdfrwt>
<pdfrwt beam="2">  1       21 0.86752342E-01 0.24896089E+03</pdfrwt>
<totfact> 0.20195939E+03</totfact>
</mgrwt>
</event>
<event>
13      2 +1.4674046e+01 3.12460600e+02 7.54677100e-03 1.07948000e-01
       21 -1    0    0  504  502 +0.0000000000e+00 +0.0000000000e+00 +7.2288755674e+02 7.2288755674e+02 0.0000000000e+00 0.0000e+00 1.0000e+00
       21 -1    0    0  501  503 -0.0000000000e+00 -0.0000000000e+00 -5.0363655354e+02 5.0363655354e+02 0.0000000000e+00 0.0000e+00 1.0000e+00
        6  2    1    2  501    0 -1.0715967752e+02 +2.9921148285e+02 +1.3970604778e+02 3.8757452169e+02 1.7229486968e+02 0.0000e+00 0.0000e+00
       24  2    3    3    0    0 -1.2021529915e+02 +2.0843545774e+02 +4.8535313724e+01 2.5817232410e+02 8.0001337864e+01 0.0000e+00 0.0000e+00
       -6  2    1    2    0  502 -1.9458544698e+02 -2.1322494082e+02 +3.0371075729e+02 4.5334083312e+02 1.7305870483e+02 0.0000e+00 0.0000e+00
      -24  2    5    5    0    0 -2.1148208318e+02 -1.7540579303e+02 +2.9470631617e+02 4.1069163367e+02 7.9523213217e+01 0.0000e+00 0.0000e+00
        5  1    3    3  501    0 +1.3055621631e+01 +9.0776025120e+01 +9.1170734061e+01 1.2940219759e+02 4.7000000000e+00 0.0000e+00 -1.0000e+00
      -13  1    4    4    0    0 -4.3944710299e+01 +1.2833350624e+02 -4.0361129953e+00 1.3570894074e+02 0.0000000000e+00 0.0000e+00 1.0000e+00
       14  1    4    4    0    0 -7.6270588848e+01 +8.0101951491e+01 +5.2571426719e+01 1.2246338336e+02 0.0000000000e+00 0.0000e+00 -1.0000e+00
       -5  1    5    5    0  502 +1.6896636198e+01 -3.7819147787e+01 +9.0044411231e+00 4.2649199454e+01 4.7000000000e+00 0.0000e+00 1.0000e+00
       13  1    6    6    0    0 -1.4063362646e+02 -6.8159421118e+01 +1.8043533295e+02 2.3870574554e+02 0.0000000000e+00 0.0000e+00 -1.0000e+00
      -14  1    6    6    0    0 -7.0848456711e+01 -1.0724637191e+02 +1.1427098322e+02 1.7198588812e+02 0.0000000000e+00 0.0000e+00 1.0000e+00
       21  1    1    2  504  503 +3.0174512449e+02 -8.5986542036e+01 -2.2416580187e+02 3.8560875547e+02 0.0000000000e+00 0.0000e+00 1.0000e+00
<mgrwt>
<rscale>  3 0.31181407E+03</rscale>
<asrwt>0</asrwt>
<pdfrwt beam="1">  1       21 0.11121347E+00 0.31246056E+03</pdfrwt>
<pdfrwt beam="2">  1       21 0.77482547E-01 0.31246056E+03</pdfrwt>
<totfact> 0.85318801E+02</totfact>
</mgrwt>
</event>
<event>
12      1 +1.4674046e+01 1.80507100e+02 7.54677100e-03 1.16774800e-01
       21 -1    0    0  503  502 +0.0000000000e+00 +0.0000000000e+00 +3.9692724663e+02 3.9692724663e+02 0.0000000000e+00 0.0000e+00 -1.0000e+00
       21 -1    0    0  501  503 -0.0000000000e+00 -0.0000000000e+00 -8.1286494615e+01 8.1286494615e+01 0.0000000000e+00 0.0000e+00 -1.0000e+00
        6  2    1    2  501    0 -3.0096792341e+01 -3.1231202856e+01 +1.5556404724e+02 2.3829179800e+02 1.7521872976e+02 0.0000e+00 0.0000e+00
       24  2    3    3    0    0 +3.4664173817e+01 -4.0722984666e+01 +4.0501709594e+01 1.0583233928e+02 8.1854316509e+01 0.0000e+00 0.0000e+00
       -6  2    1    2    0  502 +3.0096792341e+01 +3.1231202856e+01 +1.6007670477e+02 2.3992194324e+02 1.7336892022e+02 0.0000e+00 0.0000e+00
      -24  2    5    5    0    0 -9.9777010440e+00 +6.7319031117e+01 +1.5333931675e+02 1.8537124420e+02 7.8855219524e+01 0.0000e+00 0.0000e+00
        5  1    3    3  501    0 -6.4760966158e+01 +9.4917818103e+00 +1.1506233765e+02 1.3245945872e+02 4.7000000000e+00 0.0000e+00 -1.0000e+00
      -13  1    4    4    0    0 +5.2960691838e+01 -4.2464329613e+01 +5.0780168673e+01 8.4774286785e+01 0.0000000000e+00 0.0000e+00 1.0000e+00
       14  1    4    4    0    0 -1.8296518020e+01 +1.7413449464e+00 -1.0278459079e+01 2.1058052496e+01 0.0000000000e+00 0.0000e+00 -1.0000e+00
       -5  1    5    5    0  502 +4.0074493385e+01 -3.6087828261e+01 +6.7373880210e+00 5.4550699042e+01 4.7000000000e+00 0.0000e+00 1.0000e+00
       13  1    6    6    0    0 +2.4257864131e+01 +5.1545591251e+01 +1.2756421988e+02 1.3970691516e+02 0.0000000000e+00 0.0000e+00 -1.0000e+00
      -14  1    6    6    0    0 -3.4235565175e+01 +1.5773439866e+01 +2.5775096869e+01 4.5664329040e+01 0.0000000000e+00 0.0000e+00 1.0000e+00
<mgrwt>
<rscale>  2 0.18005664E+03</rscale>
<asrwt>0</asrwt>
<pdfrwt beam="1">  1       21 0.61065729E-01 0.18050709E+03</pdfrwt>
<pdfrwt beam="2">  1       21 0.12505615E-01 0.18050709E+03</pdfrwt>
<totfact> 0.13653863E+05</totfact>
</mgrwt>
</event>
<event>
14      3 +1.4674046e+01 1.83378900e+02 7.54677100e-03 1.16478300e-01
        2 -1    0    0  504    0 -0.0000000000e+00 +0.0000000000e+00 +1.9133444341e+03 1.9133444341e+03 0.0000000000e+00 0.0000e+00 -1.0000e+00
       21 -1    0    0  502  503 +0.0000000000e+00 -0.0000000000e+00 -1.7757752612e+02 1.7757752612e+02 0.0000000000e+00 0.0000e+00 -1.0000e+00
        6  2    1    2  504    0 +1.1151749268e+01 -3.9840176615e+01 +4.6667499765e+01 1.8429795609e+02 1.7342514207e+02 0.0000e+00 0.0000e+00
       24  2    3    3    0    0 +1.9215921462e+01 +2.5820972512e+01 -1.2868444449e+00 8.7101271682e+01 8.0925900062e+01 0.0000e+00 0.0000e+00
       -6  2    1    2    0  503 -5.0210972933e-01 +7.3074086059e+01 -2.7793936021e+01 1.8937601300e+02 1.7248390432e+02 0.0000e+00 0.0000e+00
      -24  2    5    5    0    0 -3.2431388378e+01 +5.3723353054e+01 -7.8874805168e+01 1.2593095885e+02 7.5494224222e+01 0.0000e+00 0.0000e+00
        5  1    3    3  501    0 +7.2974723284e+00 -3.0228676499e+01 -4.8030513384e+00 3.1814859538e+01 4.7000000000e+00 0.0000e+00 -1.0000e+00
      -13  1    4    4    0    0 +4.1492710310e+01 +3.0577103874e+01 +2.0604814084e+01 5.5508221496e+01 0.0000000000e+00 0.0000e+00 1.0000e+00
       14  1    4    4    0    0 -2.2276788848e+01 -4.7561313621e+00 -2.1891658529e+01 3.1593050186e+01 0.0000000000e+00 0.0000e+00 -1.0000e+00
       -5  1    5    5    0  503 +3.1929278648e+01 +1.9350733005e+01 +5.1080869147e+01 6.3445054147e+01 4.7000000000e+00 0.0000e+00 1.0000e+00
       13  1    6    6    0    0 -4.9872894169e+01 +5.7438858122e+01 -7.6599120536e+01 1.0795347730e+02 0.0000000000e+00 0.0000e+00 -1.0000e+00
      -14  1    6    6    0    0 +1.7441505791e+01 -3.7155050677e+00 -2.2756846325e+00 1.7977481546e+01 0.0000000000e+00 0.0000e+00 1.0000e+00
       21  1    3    3  504  501 -1.5361644522e+01 -3.5432472627e+01 +5.2757395549e+01 6.5381824875e+01 0.0000000000e+00 0.0000e+00 -1.0000e+00
        2  1    1    2  502    0 -1.0649639539e+01 -3.3233909444e+01 +1.7168933442e+03 1.7172479911e+03 0.0000000000e+00 0.0000e+00 -1.0000e+00
<mgrwt>
<rscale>  4 0.18315602E+03</rscale>
<asrwt>0</asrwt>
<pdfrwt beam="2">  1       21 0.27319621E-01 0.18337890E+03</pdfrwt>
<pdfrwt beam="1">  1        2 0.29436067E+00 0.18337890E+03</pdfrwt>
<totfact> 0.13739864E+03</totfact>
</mgrwt>
</event>
<event>
11      1 +1.4674046e+01 1.84781800e+02 7.54677100e-03 1.16334200e-01
       21 -1    0    0  503  502 +0.0000000000e+00 +0.0000000000e+00 +1.5571613809e+02 1.5571613809e+02 0.0000000000e+00 0.0000e+00 -1.0000e+00
       21 -1    0    0  501  503 -0.0000000000e+00 -0.0000000000e+00 -9.3188888846e+02 9.3188888846e+02 0.0000000000e+00 0.0000e+00 -1.0000e+00
        6  2    1    2  501    0 -5.6911876447e+01 +2.2588884387e+01 -8.6368251586e+02 8.8314902319e+02 1.7394105199e+02 0.0000e+00 0.0000e+00
       -6  2    1    2    0  502 +5.6911876447e+01 -2.2588884387e+01 +8.7509765484e+01 2.0445600336e+02 1.7434184488e+02 0.0000e+00 0.0000e+00
      -24  2    4    4    0    0 +1.4277447305e+01 +5.3313426959e+01 +4.6494262991e+01 1.0810655157e+02 8.0493123966e+01 0.0000e+00 0.0000e+00
        5  1    3    3  501    0 -6.5442818363e+01 -7.4134087585e+00 -2.4279080843e+02 2.5160919650e+02 4.7000000000e+00 0.0000e+00 -1.0000e+00
      -13  1    3    3    0    0 +4.8303931710e+01 +3.3214894299e+01 -1.9083468595e+02 1.9963560901e+02 0.0000000000e+00 0.0000e+00 1.0000e+00
       14  1    3    3    0    0 -3.9772989793e+01 -3.2126011536e+00 -4.3005702148e+02 4.3190421768e+02 0.0000000000e+00 0.0000e+00 -1.0000e+00
       -5  1    4    4    0  502 +4.2634429142e+01 -7.5902311346e+01 +4.1015502493e+01 9.6349451792e+01 4.7000000000e+00 0.0000e+00 1.0000e+00
       13  1    5    5    0    0 -1.6097582234e+01 +9.4186441153e+00 +5.1227913752e+01 5.4517356485e+01 0.0000000000e+00 0.0000e+00 -1.0000e+00
      -14  1    5    5    0    0 +3.0375029540e+01 +4.3894782844e+01 -4.7336507604e+00 5.3589195086e+01 0.0000000000e+00 0.0000e+00 1.0000e+00
<mgrwt>
<rscale>  2 0.18468716E+03</rscale>
<asrwt>0</asrwt>
<pdfrwt beam="1">  1       21 0.23956329E-01 0.18478176E+03</pdfrwt>
<pdfrwt beam="2">  1       21 0.14336752E+00 0.18478176E+03</pdfrwt>
<totfact> 0.55634577E+03</totfact>
</mgrwt>
</event>
<event>
12      2 +1.4674046e+01 2.20119200e+02 7.54677100e-03 1.14435900e-01
        1 -1    0    0  503    0 -0.0000000000e+00 +0.0000000000e+00 +1.5581709597e+03 1.5581709597e+03 0.0000000000e+00 0.0000e+00 -1.0000e+00
       21 -1    0    0  501  503 +0.0000000000e+00 -0.0000000000e+00 -1.4457278426e+02 1.4457278426e+02 0.0000000000e+00 0.0000e+00 -1.0000e+00
      -24  2    1    2    0    0 -2.7342183342e+01 +6.5281199841e+01 +9.1403143153e+01 1.4081414471e+02 8.0404345220e+01 0.0000e+00 0.0000e+00
        6  2    1    2  501    0 +3.2575723782e+00 -5.7958647975e+01 +6.8085176537e+01 1.9098751047e+02 1.6873298800e+02 0.0000e+00 0.0000e+00
       24  2    4    4    0    0 +5.8890429111e+01 -6.7459367363e+01 +4.8974875138e+01 1.3121651385e+02 8.2464454326e+01 0.0000e+00 0.0000e+00
        5  1    4    4  501    0 -5.5632856732e+01 +9.5007193873e+00 +1.9110301399e+01 5.9770996617e+01 4.7000000000e+00 0.0000e+00 -1.0000e+00
      -13  1    5    5    0    0 -1.2865439806e+01 -2.7068116195e+01 +3.7613580386e+01 4.8093491090e+01 0.0000000000e+00 0.0000e+00 1.0000e+00
       14  1    5    5    0    0 +7.1755868917e+01 -4.0391251167e+01 +1.1361294753e+01 8.3123022764e+01 0.0000000000e+00 0.0000e+00 -1.0000e+00
       -5  1    1    2    0  502 +2.7455789228e+01 -7.8228834711e+01 -2.7418184974e+01 8.7449515777e+01 4.7000000000e+00 0.0000e+00 1.0000e+00
       13  1    3    3    0    0 +1.3561234852e+01 +2.5963557713e+01 +7.6847519741e+01 8.2240833594e+01 0.0000000000e+00 0.0000e+00 -1.0000e+00
      -14  1    3    3    0    0 -4.0903418194e+01 +3.9317642128e+01 +1.4555623411e+01 5.8573311118e+01 0.0000000000e+00 0.0000e+00 1.0000e+00
        1  1    1    2  502    0 -3.3711782640e+00 +7.0906282845e+01 +1.2815280407e+03 1.2834925730e+03 0.0000000000e+00 0.0000e+00 -1.0000e+00
<mgrwt>
<rscale>  3 0.20651138E+03</rscale>
<asrwt>0</asrwt>
<pdfrwt beam="2">  1       21 0.22241968E-01 0.22011916E+03</pdfrwt>
<pdfrwt beam="1">  1        1 0.23971860E+00 0.22011916E+03</pdfrwt>
<totfact> 0.13864545E+03</totfact>
</mgrwt>
</event>
<event>
13      2 +1.4674046e+01 4.68265300e+02 7.54677100e-03 1.04928800e-01
       21 -1    0    0  501  503 +0.0000000000e+00 +0.0000000000e+00 +3.9730187737e+02 3.9730187737e+02 0.0000000000e+00 0.0000e+00 1.0000e+00
        2 -1    0    0  503    0 -0.0000000000e+00 -0.0000000000e+00 -1.3009116704e+03 1.3009116704e+03 0.0000000000e+00 0.0000e+00 -1.0000e+00
       -6  2    1    2    0  502 +4.8162284005e+02 -4.7412313912e+00 -8.2719882373e+02 9.7283372528e+02 1.7367937046e+02 0.0000e+00 0.0000e+00
      -24  2    3    3    0    0 +4.5574865137e+02 +2.5935591219e+01 -7.0039010867e+02 8.3974322486e+02 7.9011969118e+01 0.0000e+00 0.0000e+00
        6  2    1    2  501    0 -1.1240958121e+02 -5.0346078472e+01 +1.7480622014e+02 2.7542080384e+02 1.7357638960e+02 0.0000e+00 0.0000e+00
       24  2    5    5    0    0 -1.3863747856e+02 -1.1872038187e+01 +1.1009753121e+02 1.9556181063e+02 8.2229311351e+01 0.0000e+00 0.0000e+00
        5  1    5    5  501    0 +2.6227897346e+01 -3.8474040285e+01 +6.4708688927e+01 7.9858993218e+01 4.7000000000e+00 0.0000e+00 -1.0000e+00
      -13  1    6    6    0    0 -3.2696852253e+01 -3.6659199225e+01 +1.5849983084e+01 5.1615918076e+01 0.0000000000e+00 0.0000e+00 1.0000e+00
       14  1    6    6    0    0 -1.0594062631e+02 +2.4787161039e+01 +9.4247548125e+01 1.4394589255e+02 0.0000000000e+00 0.0000e+00 -1.0000e+00
       -5  1    3    3    0  502 +2.5874188681e+01 -3.0676822610e+01 -1.2680871506e+02 1.3309050041e+02 4.7000000000e+00 0.0000e+00 1.0000e+00
       13  1    4    4    0    0 +2.3769628025e+02 -2.6005543361e+01 -3.6356286231e+02 4.3514798033e+02 0.0000000000e+00 0.0000e+00 -1.0000e+00
      -14  1    4    4    0    0 +2.1805237112e+02 +5.1941134579e+01 -3.3682724636e+02 4.0459524454e+02 0.0000000000e+00 0.0000e+00 1.0000e+00
        2  1    1    2  502    0 -3.6921325884e+02 +5.5087309863e+01 -2.5121718949e+02 4.4995901869e+02 0.0000000000e+00 0.0000e+00 -1.0000e+00
<mgrwt>
<rscale>  3 0.38448603E+03</rscale>
<asrwt>0</asrwt>
<pdfrwt beam="1">  1       21 0.61123368E-01 0.46826532E+03</pdfrwt>
<pdfrwt beam="2">  1        2 0.20014025E+00 0.46826532E+03</pdfrwt>
<totfact> 0.49473145E+02</totfact>
</mgrwt>
</event>
<event>
13      2 +1.4674046e+01 1.76620200e+02 7.54677100e-03 1.17163600e-01
       21 -1    0    0  504  502 +0.0000000000e+00 +0.0000000000e+00 +4.1969826469e+02 4.1969826469e+02 0.0000000000e+00 0.0000e+00 1.0000e+00
       21 -1    0    0  501  503 -0.0000000000e+00 -0.0000000000e+00 -2.8784428307e+02 2.8784428307e+02 0.0000000000e+00 0.0000e+00 1.0000e+00
        6  2    1    2  501    0 -5.8687804131e+01 +1.4783356088e+02 -3.7975895694e+01 2.3622123344e+02 1.7046783390e+02 0.0000e+00 0.0000e+00
       24  2    3    3    0    0 -8.5442151478e+01 +8.6907214638e+01 -7.0206334464e+01 1.6213543215e+02 8.0658190877e+01 0.0000e+00 0.0000e+00
       -6  2    1    2    0  502 +1.5747441017e+01 -6.1768172664e+00 +2.4900739338e+02 3.0345354837e+02 1.7260718146e+02 0.0000e+00 0.0000e+00
      -24  2    5    5    0    0 +4.4973915163e+01 +1.8288257750e+01 +2.4830017462e+02 2.6504369488e+02 7.8981453905e+01 0.0000e+00 0.0000e+00
        5  1    3    3  501    0 +2.6754347346e+01 +6.0926346241e+01 +3.2230438770e+01 7.4085801282e+01 4.7000000000e+00 0.0000e+00 -1.0000e+00
      -13  1    4    4    0    0 +5.2431287239e+00 +3.9441036768e+01 -3.7514887710e+01 5.4685030676e+01 0.0000000000e+00 0.0000e+00 1.0000e+00
       14  1    4    4    0    0 -9.0685280202e+01 +4.7466177870e+01 -3.2691446754e+01 1.0745040148e+02 0.0000000000e+00 0.0000e+00 -1.0000e+00
       -5  1    5    5    0  502 -2.9226474146e+01 -2.4465075017e+01 +7.0721875412e-01 3.8409853488e+01 4.7000000000e+00 0.0000e+00 1.0000e+00
       13  1    6    6    0    0 +2.6431347034e+01 +2.8978560415e+01 +4.1362224404e+01 5.7001812931e+01 0.0000000000e+00 0.0000e+00 -1.0000e+00
      -14  1    6    6    0    0 +1.8542568129e+01 -1.0690302664e+01 +2.0693795022e+02 2.0804188195e+02 0.0000000000e+00 0.0000e+00 1.0000e+00
       21  1    1    2  504  503 +4.2940363114e+01 -1.4165674361e+02 -7.9177516068e+01 1.6786776595e+02 0.0000000000e+00 0.0000e+00 1.0000e+00
<mgrwt>
<rscale>  3 0.17609536E+03</rscale>
<asrwt>0</asrwt>
<pdfrwt beam="1">  1       21 0.64568964E-01 0.17662023E+03</pdfrwt>
<pdfrwt beam="2">  1       21 0.44283736E-01 0.17662023E+03</pdfrwt>
<totfact> 0.10948962E+04</totfact>
</mgrwt>
</event>
<event>
14      3 +1.4674046e+01 1.91813400e+02 7.54677100e-03 1.15683900e-01
       21 -1    0    0  504  503 +0.0000000000e+00 +0.0000000000e+00 +7.2377100508e+01 7.2377100508e+01 0.0000000000e+00 0.0000e+00 1.0000e+00
       -1 -1    0    0    0  501 -0.0000000000e+00 -0.0000000000e+00 -2.6782916684e+03 2.6782916684e+03 0.0000000000e+00 0.0000e+00 -1.0000e+00
       -6  2    1    2    0  501 +8.4723029346e+01 -2.9011351190e+01 -2.2698027978e+02 2.9901406672e+02 1.7282856966e+02 0.0000e+00 0.0000e+00
      -24  2    3    3    0    0 +7.8311331996e+00 +3.3120429546e+01 -1.0740415180e+02 1.4379402210e+02 8.9346401536e+01 0.0000e+00 0.0000e+00
        6  2    1    2  502    0 -9.5375770217e+01 -5.0176653474e+00 -8.4357613131e+02 8.6637602829e+02 1.7281498360e+02 0.0000e+00 0.0000e+00
       24  2    5    5    0    0 -2.0687526375e+01 -5.8901083016e+01 -3.6088141591e+02 3.7495153282e+02 8.0348891005e+01 0.0000e+00 0.0000e+00
        5  1    5    5  502    0 -7.4688243841e+01 +5.3883417669e+01 -4.8269471541e+02 4.9142449547e+02 4.7000000000e+00 0.0000e+00 -1.0000e+00
      -13  1    6    6    0    0 -6.5339569759e+00 -3.3067282807e+01 -3.8267032412e+01 5.0995132666e+01 0.0000000000e+00 0.0000e+00 1.0000e+00
       14  1    6    6    0    0 -1.4153569399e+01 -2.5833800209e+01 -3.2261438349e+02 3.2395640015e+02 0.0000000000e+00 0.0000e+00 -1.0000e+00
       -5  1    3    3    0  501 +7.6891896147e+01 -6.2131780737e+01 -1.1957612797e+02 1.5522004462e+02 4.7000000000e+00 0.0000e+00 1.0000e+00
       13  1    4    4    0    0 +2.4880553653e+01 -2.1997723027e+01 -6.2156581472e+01 7.0472564795e+01 0.0000000000e+00 0.0000e+00 -1.0000e+00
      -14  1    4    4    0    0 -1.7049420453e+01 +5.5118152574e+01 -4.5247570330e+01 7.3321457308e+01 0.0000000000e+00 0.0000e+00 1.0000e+00
       21  1    1    2  504  502 -8.3406498127e+00 +5.0646078224e+01 -1.6416122903e+00 5.1354518493e+01 0.0000000000e+00 0.0000e+00 1.0000e+00
       -1  1    1    2    0  503 +1.8993390683e+01 -1.6617061686e+01 -1.5337165445e+03 1.5339241554e+03 0.0000000000e+00 0.0000e+00 -1.0000e+00
<mgrwt>
<rscale>  4 0.19181039E+03</rscale>
<asrwt>0</asrwt>
<pdfrwt beam="1">  1       21 0.11134937E-01 0.19181345E+03</pdfrwt>
<pdfrwt beam="2">  1       -1 0.41204493E+00 0.19181345E+03</pdfrwt>
<totfact> 0.47760507E+01</totfact>
</mgrwt>
</event>
<event>
13      2 +1.4674046e+01 2.98903900e+02 7.54677100e-03 1.08694300e-01
       21 -1    0    0  503  502 +0.0000000000e+00 +0.0000000000e+00 +9.0348366542e+02 9.0348366542e+02 0.0000000000e+00 0.0000e+00 -1.0000e+00
       21 -1    0    0  501  503 -0.0000000000e+00 -0.0000000000e+00 -4.9043692341e+02 4.9043692341e+02 0.0000000000e+00 0.0000e+00 -1.0000e+00
        6  2    1    2  501    0 -1.7267551304e+02 -1.2687924164e+02 -1.6504979716e+02 3.2740373291e+02 1.8449009193e+02 0.0000e+00 0.0000e+00
       24  2    3    3    0    0 -7.9556336469e+01 +5.7886580501e+00 -1.0559821945e+02 1.5469434479e+02 8.0103914540e+01 0.0000e+00 0.0000e+00
       -6  2    1    2    0  504 +1.7726628007e+02 +1.9557130427e+02 -1.4116131079e+02 3.4397168131e+02 1.6946543240e+02 0.0000e+00 0.0000e+00
      -24  2    5    5    0    0 +5.3479653261e+01 +1.1973054122e+02 -1.2778909504e+02 1.9810922395e+02 7.5642157464e+01 0.0000e+00 0.0000e+00
        5  1    3    3  501    0 -9.3119176573e+01 -1.3266789969e+02 -5.9451577710e+01 1.7270938812e+02 4.7000000000e+00 0.0000e+00 -1.0000e+00
      -13  1    4    4    0    0 -8.6972632654e+00 +2.5632731677e+01 -6.5545718301e+01 7.0914882141e+01 0.0000000000e+00 0.0000e+00 1.0000e+00
       14  1    4    4    0    0 -7.0859073203e+01 -1.9844073627e+01 -4.0052501147e+01 8.3779462647e+01 0.0000000000e+00 0.0000e+00 -1.0000e+00
       -5  1    5    5    0  504 +1.2378662680e+02 +7.5840763044e+01 -1.3372215743e+01 1.4586245737e+02 4.7000000000e+00 0.0000e+00 1.0000e+00
       13  1    6    6    0    0 +1.0122598525e+01 +3.6507606518e+01 +2.0137525560e+00 3.7938470369e+01 0.0000000000e+00 0.0000e+00 -1.0000e+00
      -14  1    6    6    0    0 +4.3357054736e+01 +8.3222934704e+01 -1.2980284760e+02 1.6017075358e+02 0.0000000000e+00 0.0000e+00 1.0000e+00
       21  1    1    2  504  502 -4.5907670244e+00 -6.8692062625e+01 +7.1925784997e+02 7.2254517461e+02 0.0000000000e+00 0.0000e+00 -1.0000e+00
<mgrwt>
<rscale>  3 0.29661979E+03</rscale>
<asrwt>0</asrwt>
<pdfrwt beam="1">  1       21 0.13899749E+00 0.29890394E+03</pdfrwt>
<pdfrwt beam="2">  1       21 0.75451834E-01 0.29890394E+03</pdfrwt>
<totfact> 0.51971253E+02</totfact>
</mgrwt>
</event>
<event>
13      2 +1.4674046e+01 2.70503200e+02 7.54677100e-03 1.10110500e-01
       21 -1    0    0  504  502 +0.0000000000e+00 +0.0000000000e+00 +1.2354842769e+02 1.2354842769e+02 0.0000000000e+00 0.0000e+00 -1.0000e+00
       21 -1    0    0  502  503 -0.0000000000e+00 -0.0000000000e+00 -1.8690042042e+03 1.8690042042e+03 0.0000000000e+00 0.0000e+00 1.0000e+00
        6  2    1    2  501    0 -3.5334119132e+01 -1.9000876838e+02 -9.5694611129e+02 9.9160043849e+02 1.7370589414e+02 0.0000e+00 0.0000e+00
       24  2    3    3    0    0 -3.2771362236e+01 -3.3551781610e+01 -4.9793653704e+02 5.0662906234e+02 8.0824053669e+01 0.0000e+00 0.0000e+00
       -6  2    1    2    0  503 +3.5262812060e+01 +2.2057512252e+02 -8.6937647711e+02 9.1450134978e+02 1.7492972648e+02 0.0000e+00 0.0000e+00
      -24  2    5    5    0    0 -4.6780859587e+01 +9.2623328432e+01 -4.3112599544e+02 4.5061731217e+02 8.0117465548e+01 0.0000e+00 0.0000e+00
        5  1    3    3  501    0 -2.5627568957e+00 -1.5645698677e+02 -4.5900957425e+02 4.8497137615e+02 4.7000000000e+00 0.0000e+00 -1.0000e+00
      -13  1    4    4    0    0 +2.0823204713e+01 -3.3976759614e+01 -2.1223787320e+02 2.1594661579e+02 0.0000000000e+00 0.0000e+00 1.0000e+00
       14  1    4    4    0    0 -5.3594566949e+01 +4.2497800404e-01 -2.8569866384e+02 2.9068244655e+02 0.0000000000e+00 0.0000e+00 -1.0000e+00
       -5  1    5    5    0  503 +8.2043671648e+01 +1.2795179409e+02 -4.3825048167e+02 4.6388403762e+02 4.7000000000e+00 0.0000e+00 1.0000e+00
       13  1    6    6    0    0 -4.3998612527e+01 +5.5128338341e+01 -1.3693141622e+02 1.5402994624e+02 0.0000000000e+00 0.0000e+00 -1.0000e+00
      -14  1    6    6    0    0 -2.7822470598e+00 +3.7494990092e+01 -2.9419457922e+02 2.9658736592e+02 0.0000000000e+00 0.0000e+00 1.0000e+00
       21  1    1    2  504  501 +7.1307071186e-02 -3.0566354139e+01 +8.0866811917e+01 8.6450843603e+01 0.0000000000e+00 0.0000e+00 -1.0000e+00
<mgrwt>
<rscale>  3 0.27030550E+03</rscale>
<asrwt>0</asrwt>
<pdfrwt beam="1">  1       21 0.19007452E-01 0.27050317E+03</pdfrwt>
<pdfrwt beam="2">  1       21 0.28753908E+00 0.27050317E+03</pdfrwt>
<totfact> 0.93662324E+02</totfact>
</mgrwt>
</event>
<event>
14      3 +1.4674046e+01 2.44823200e+02 7.54677100e-03 1.12820200e-01
       21 -1    0    0  505  502 +0.0000000000e+00 +0.0000000000e+00 +2.1803136727e+02 2.1803136727e+02 0.0000000000e+00 0.0000e+00 -1.0000e+00
       21 -1    0    0  502  503 -0.0000000000e+00 -0.0000000000e+00 -6.1630824545e+02 6.1630824545e+02 0.0000000000e+00 0.0000e+00 -1.0000e+00
        6  2    1    2  501    0 -1.1877371831e+02 -1.0457124434e+02 -5.1905450480e+01 2.3976747710e+02 1.7248746615e+02 0.0000e+00 0.0000e+00
       24  2    3    3    0    0 -2.9689793639e+01 -1.1174216419e+02 -5.0697020156e+01 1.5026374516e+02 8.1493620327e+01 0.0000e+00 0.0000e+00
       -6  2    1    2    0  503 +3.5956084255e+01 -6.4821429343e+01 -3.5632577317e+02 4.0079513393e+02 1.6785119916e+02 0.0000e+00 0.0000e+00
      -24  2    5    5    0    0 -3.6071022171e+01 -3.4178443600e+01 -2.6071746376e+02 2.7714265533e+02 7.9782020828e+01 0.0000e+00 0.0000e+00
        5  1    3    3  501    0 -8.9083924668e+01 +7.1709198488e+00 -1.2084303233e+00 8.9503731931e+01 4.7000000000e+00 0.0000e+00 -1.0000e+00
      -13  1    4    4    0    0 -1.4506720454e+01 +7.9918018650e+00 +5.0544196020e+00 1.7316494822e+01 0.0000000000e+00 0.0000e+00 1.0000e+00
       14  1    4    4    0    0 -1.5183073184e+01 -1.1973396605e+02 -5.5751439758e+01 1.3294725034e+02 0.0000000000e+00 0.0000e+00 -1.0000e+00
       -5  1    5    5    0  503 +7.2027106426e+01 -3.0642985743e+01 -9.5608309417e+01 1.2365247860e+02 4.7000000000e+00 0.0000e+00 1.0000e+00
       13  1    6    6    0    0 -4.4916062531e+01 -8.3151895317e+00 -2.3570927550e+02 2.4009468467e+02 0.0000000000e+00 0.0000e+00 -1.0000e+00
      -14  1    6    6    0    0 +8.8450403602e+00 -2.5863254068e+01 -2.5008188256e+01 3.7047970657e+01 0.0000000000e+00 0.0000e+00 1.0000e+00
       21  1    1    2  504  501 +7.4567949285e+01 +1.2136018311e+02 +2.0520757003e+01 1.4390891068e+02 0.0000000000e+00 0.0000e+00 -1.0000e+00
       21  1    1    2  505  504 +8.2496847667e+00 +4.8032490569e+01 -1.0566411529e+01 4.9868091016e+01 0.0000000000e+00 0.0000e+00 -1.0000e+00
<mgrwt>
<rscale>  4 0.22779418E+03</rscale>
<asrwt>0</asrwt>
<pdfrwt beam="1">  1       21 0.33543288E-01 0.24482315E+03</pdfrwt>
<pdfrwt beam="2">  1       21 0.94816651E-01 0.24482315E+03</pdfrwt>
<totfact> 0.76916868E+03</totfact>
</mgrwt>
</event>
<event>
13      2 +1.4674046e+01 2.41236200e+02 7.54677100e-03 1.11905000e-01
        2 -1    0    0  501    0 -0.0000000000e+00 +0.0000000000e+00 +1.8741585404e+03 1.8741585404e+03 0.0000000000e+00 0.0000e+00 -1.0000e+00
       21 -1    0    0  502  503 +0.0000000000e+00 -0.0000000000e+00 -4.0689981787e+01 4.0689981787e+01 0.0000000000e+00 0.0000e+00 -1.0000e+00
        6  2    1    2  501    0 -1.6074944439e+02 -7.9275325325e+01 +8.8547375733e+02 9.1994221468e+02 1.7350775876e+02 0.0000e+00 0.0000e+00
       24  2    3    3    0    0 -8.1475223787e+01 -7.3164026103e+01 +3.0191481475e+02 3.3097287804e+02 7.9995648809e+01 0.0000e+00 0.0000e+00
       -6  2    1    2    0  503 +1.4052236224e+02 +7.3886426055e+01 +5.7631743534e+02 6.2263995201e+02 1.7416367390e+02 0.0000e+00 0.0000e+00
      -24  2    5    5    0    0 +1.1309815767e+02 +2.7383557412e+01 +5.3840511359e+02 5.5650344220e+02 7.9214659997e+01 0.0000e+00 0.0000e+00
        5  1    3    3  501    0 -7.9274220603e+01 -6.1112992217e+00 +5.8355894258e+02 5.8896933664e+02 4.7000000000e+00 0.0000e+00 -1.0000e+00
      -13  1    4    4    0    0 -1.5731560247e+01 +1.7380625821e+01 +6.0654635329e+01 6.5027324477e+01 0.0000000000e+00 0.0000e+00 1.0000e+00
       14  1    4    4    0    0 -6.5743663540e+01 -9.0544651924e+01 +2.4126017942e+02 2.6594555357e+02 0.0000000000e+00 0.0000e+00 -1.0000e+00
       -5  1    5    5    0  503 +2.7424204569e+01 +4.6502868643e+01 +3.7912321757e+01 6.6136509806e+01 4.7000000000e+00 0.0000e+00 1.0000e+00
       13  1    6    6    0    0 +4.2635761262e+01 +5.0290095588e+01 +2.8224012560e+02 2.8983855911e+02 0.0000000000e+00 0.0000e+00 -1.0000e+00
      -14  1    6    6    0    0 +7.0462396410e+01 -2.2906538176e+01 +2.5616498799e+02 2.6666488309e+02 0.0000000000e+00 0.0000e+00 1.0000e+00
        2  1    1    2  502    0 +2.0227082149e+01 +5.3888992702e+00 +3.7167736597e+02 3.7226635553e+02 0.0000000000e+00 0.0000e+00 -1.0000e+00
<mgrwt>
<rscale>  3 0.24111783E+03</rscale>
<asrwt>0</asrwt>
<pdfrwt beam="2">  1       21 0.62599986E-02 0.24123620E+03</pdfrwt>
<pdfrwt beam="1">  1        2 0.28833202E+00 0.24123620E+03</pdfrwt>
<totfact> 0.20226414E+04</totfact>
</mgrwt>
</event>
<event>
12      1 +1.4674046e+01 2.45009300e+02 7.54677100e-03 1.11668600e-01
       21 -1    0    0  503  502 +0.0000000000e+00 +0.0000000000e+00 +4.7776895627e+01 4.7776895627e+01 0.0000000000e+00 0.0000e+00 1.0000e+00
       21 -1    0    0  501  503 -0.0000000000e+00 -0.0000000000e+00 -1.3717206370e+03 1.3717206370e+03 0.0000000000e+00 0.0000e+00 -1.0000e+00
        6  2    1    2  501    0 +8.2002890470e+01 +1.5129773359e+02 -4.5247681264e+02 5.1455302271e+02 1.7439629861e+02 0.0000e+00 0.0000e+00
       24  2    3    3    0    0 +1.1120613169e+02 +9.0713524474e+01 -2.3420825791e+02 2.8610931482e+02 8.0058008367e+01 0.0000e+00 0.0000e+00
       -6  2    1    2    0  502 -8.2002890470e+01 -1.5129773359e+02 -8.7146692875e+02 9.0494450993e+02 1.7278448979e+02 0.0000e+00 0.0000e+00
      -24  2    5    5    0    0 -2.3101305747e+01 -9.3495874918e+00 -2.2621779399e+02 2.4162919368e+02 8.1173220999e+01 0.0000e+00 0.0000e+00
        5  1    3    3  501    0 -2.9203241225e+01 +6.0584209117e+01 -2.1826855473e+02 2.2844370789e+02 4.7000000000e+00 0.0000e+00 -1.0000e+00
      -13  1    4    4    0    0 +9.8636217479e+01 +1.0582352246e+02 -2.0501071221e+02 2.5091256131e+02 0.0000000000e+00 0.0000e+00 1.0000e+00
       14  1    4    4    0    0 +1.2569914215e+01 -1.5109997983e+01 -2.9197545698e+01 3.5196753504e+01 0.0000000000e+00 0.0000e+00 -1.0000e+00
       -5  1    5    5    0  502 -5.8901584723e+01 -1.4194814610e+02 -6.4524913476e+02 6.6331531625e+02 4.7000000000e+00 0.0000e+00 1.0000e+00
       13  1    6    6    0    0 -3.1773832398e+01 -4.1054255097e+01 -1.3193375826e+02 1.4177991697e+02 0.0000000000e+00 0.0000e+00 -1.0000e+00
      -14  1    6    6    0    0 +8.6725266511e+00 +3.1704667605e+01 -9.4284035726e+01 9.9849276709e+01 0.0000000000e+00 0.0000e+00 1.0000e+00
<mgrwt>
<rscale>  2 0.24472261E+03</rscale>
<asrwt>0</asrwt>
<pdfrwt beam="1">  1       21 0.73502923E-02 0.24500928E+03</pdfrwt>
<pdfrwt beam="2">  1       21 0.21103392E+00 0.24500928E+03</pdfrwt>
<totfact> 0.15287863E+04</totfact>
</mgrwt>
</event>
<event>
13      2 +1.4674046e+01 2.76161500e+02 7.54677100e-03 1.09793000e-01
       21 -1    0    0  504  502 +0.0000000000e+00 +0.0000000000e+00 +1.0055253819e+03 1.0055253819e+03 0.0000000000e+00 0.0000e+00 1.0000e+00
       21 -1    0    0  501  503 -0.0000000000e+00 -0.0000000000e+00 -1.7629113568e+02 1.7629113568e+02 0.0000000000e+00 0.0000e+00 -1.0000e+00
        6  2    1    2  501    0 -2.2305757492e+02 +5.2222268512e+01 +6.7464177331e+01 2.9477412446e+02 1.7279618679e+02 0.0000e+00 0.0000e+00
       24  2    3    3    0    0 -2.4254192564e+02 +6.3230096878e+01 +5.5892530717e+01 2.6914591318e+02 8.0566225837e+01 0.0000e+00 0.0000e+00
       -6  2    1    2    0  502 +1.8776688733e+02 -5.2831305630e+01 +2.0941447968e+02 3.3356023397e+02 1.7134892633e+02 0.0000e+00 0.0000e+00
      -24  2    5    5    0    0 +2.0684278670e+02 -2.8070102197e+01 +2.0124016895e+02 3.0091185747e+02 8.0488951534e+01 0.0000e+00 0.0000e+00
        5  1    3    3  501    0 +1.9484350719e+01 -1.1007828366e+01 +1.1571646614e+01 2.5628211284e+01 4.7000000000e+00 0.0000e+00 -1.0000e+00
      -13  1    4    4    0    0 -8.5614400294e+01 +4.5786638471e+00 +5.4533676071e+01 1.0161058767e+02 0.0000000000e+00 0.0000e+00 1.0000e+00
       14  1    4    4    0    0 -1.5692752534e+02 +5.8651433031e+01 +1.3588546469e+00 1.6753532551e+02 0.0000000000e+00 0.0000e+00 -1.0000e+00
       -5  1    5    5    0  502 -1.9075899368e+01 -2.4761203433e+01 +8.1743107280e+00 3.2648376499e+01 4.7000000000e+00 0.0000e+00 1.0000e+00
       13  1    6    6    0    0 +3.5683954688e+01 -3.1963084442e+01 +7.1664192917e+01 8.6201739749e+01 0.0000000000e+00 0.0000e+00 -1.0000e+00
      -14  1    6    6    0    0 +1.7115883201e+02 +3.8929822444e+00 +1.2957597603e+02 2.1471011772e+02 0.0000000000e+00 0.0000e+00 1.0000e+00
       21  1    1    2  504  503 +3.5290687585e+01 +6.0903711755e-01 +5.5235558922e+02 5.5348215915e+02 0.0000000000e+00 0.0000e+00 1.0000e+00
<mgrwt>
<rscale>  3 0.27593541E+03</rscale>
<asrwt>0</asrwt>
<pdfrwt beam="1">  1       21 0.15469621E+00 0.27616150E+03</pdfrwt>
<pdfrwt beam="2">  1       21 0.27121714E-01 0.27616150E+03</pdfrwt>
<totfact> 0.33494518E+03</totfact>
</mgrwt>
</event>
<event>
14      3 +1.4674046e+01 2.93373000e+02 7.54677100e-03 1.08930100e-01
        1 -1    0    0  501    0 +0.0000000000e+00 +0.0000000000e+00 +7.9147873385e+02 7.9147873385e+02 0.0000000000e+00 0.0000e+00 -1.0000e+00
       -1 -1    0    0    0  501 -0.0000000000e+00 -0.0000000000e+00 -3.0529778628e+02 3.0529778628e+02 0.0000000000e+00 0.0000e+00 1.0000e+00
        6  2    1    2  502    0 -1.5657023706e+01 -1.8449165423e+02 +3.1428079986e+01 2.5467531083e+02 1.7201592038e+02 0.0000e+00 0.0000e+00
       24  2    3    3    0    0 -3.4778424542e+01 -1.0290427846e+02 -4.2919151230e+01 1.4255159057e+02 8.1731714125e+01 0.0000e+00 0.0000e+00
       -6  2    1    2    0  503 +3.0914103051e+01 +2.5673761316e+02 +2.5991408720e+02 4.0883504871e+02 1.8088913885e+02 0.0000e+00 0.0000e+00
      -24  2    5    5    0    0 -4.3210784913e+01 +8.7982290036e+01 +1.3931657177e+02 1.8852002693e+02 8.0762850922e+01 0.0000e+00 0.0000e+00
        5  1    3    3  502    0 +1.9121400835e+01 -8.1587375771e+01 +7.4347231217e+01 1.1212372026e+02 4.7000000000e+00 0.0000e+00 -1.0000e+00
      -13  1    4    4    0    0 +2.5772060295e+01 -1.8830949117e+01 -1.4876885023e+01 3.5215414870e+01 0.0000000000e+00 0.0000e+00 1.0000e+00
       14  1    4    4    0    0 -6.0550484836e+01 -8.4073329342e+01 -2.8042266208e+01 1.0733617570e+02 0.0000000000e+00 0.0000e+00 -1.0000e+00
       -5  1    5    5    0  503 +7.4124887964e+01 +1.6875532312e+02 +1.2059751543e+02 2.2031502179e+02 4.7000000000e+00 0.0000e+00 1.0000e+00
       13  1    6    6    0    0 -1.1744415262e+00 +8.4560152229e+01 +9.8575687375e+01 1.2988057899e+02 0.0000000000e+00 0.0000e+00 -1.0000e+00
      -14  1    6    6    0    0 -4.2036343387e+01 +3.4221378064e+00 +4.0740884399e+01 5.8639447935e+01 0.0000000000e+00 0.0000e+00 1.0000e+00
        1  1    1    2  503    0 -1.7353493334e+01 +1.1559025871e+01 +2.9890670734e+02 2.9963306644e+02 0.0000000000e+00 0.0000e+00 -1.0000e+00
       -1  1    1    2    0  502 +2.0964139897e+00 -8.3804984798e+01 -1.0406792695e+02 1.3363309414e+02 0.0000000000e+00 0.0000e+00 1.0000e+00
<mgrwt>
<rscale>  4 0.29201706E+03</rscale>
<asrwt>0</asrwt>
<pdfrwt beam="1">  1        1 0.12176596E+00 0.29337302E+03</pdfrwt>
<pdfrwt beam="2">  1       -1 0.46968890E-01 0.29337302E+03</pdfrwt>
<totfact> 0.10900255E+02</totfact>
</mgrwt>
</event>
<event>
14      3 +1.4674046e+01 1.74545600e+02 7.54677100e-03 1.17332300e-01
       21 -1    0    0  504  502 +0.0000000000e+00 +0.0000000000e+00 +1.3338822843e+02 1.3338822843e+02 0.0000000000e+00 0.0000e+00 -1.0000e+00
       21 -1    0    0  505  503 -0.0000000000e+00 -0.0000000000e+00 -6.0608260549e+02 6.0608260549e+02 0.0000000000e+00 0.0000e+00 -1.0000e+00
        6  2    1    2  501    0 +9.5320563885e-01 +1.0343293400e+01 -4.1202222873e+02 4.4694455426e+02 1.7288500600e+02 0.0000e+00 0.0000e+00
       24  2    3    3    0    0 -4.2968134343e+01 +2.9108979145e+01 -1.4309553979e+02 1.7376898967e+02 8.3819657765e+01 0.0000e+00 0.0000e+00
       -6  2    1    2    0  502 +5.8354772588e+01 +2.4772833884e+01 +7.8204641796e+00 1.8380276433e+02 1.7234652226e+02 0.0000e+00 0.0000e+00
      -24  2    5    5    0    0 -2.3435900783e+01 +3.5486713682e+01 +8.7420924563e+00 1.0117443463e+02 9.1385413217e+01 0.0000e+00 0.0000e+00
        5  1    3    3  501    0 +4.3921339982e+01 -1.8765685745e+01 -2.6892668894e+02 2.7317556459e+02 4.7000000000e+00 0.0000e+00 -1.0000e+00
      -13  1    4    4    0    0 -3.0906837336e+01 -2.2491823936e+01 -2.9041163568e+01 4.8005248874e+01 0.0000000000e+00 0.0000e+00 1.0000e+00
       14  1    4    4    0    0 -1.2061297007e+01 +5.1600803081e+01 -1.1405437622e+02 1.2576374080e+02 0.0000000000e+00 0.0000e+00 -1.0000e+00
       -5  1    5    5    0  502 +8.1790673371e+01 -1.0713879799e+01 -9.2162827666e-01 8.2628329703e+01 4.7000000000e+00 0.0000e+00 1.0000e+00
       13  1    6    6    0    0 +9.9103941282e+00 +4.6271420201e+01 +3.3747159911e+01 5.8121691659e+01 0.0000000000e+00 0.0000e+00 -1.0000e+00
      -14  1    6    6    0    0 -3.3346294911e+01 -1.0784706519e+01 -2.5005067455e+01 4.3052742972e+01 0.0000000000e+00 0.0000e+00 1.0000e+00
       21  1    1    2  504  503 -4.2926723166e+01 -6.9261595510e+00 -1.4846338501e+01 4.5946588718e+01 0.0000000000e+00 0.0000e+00 -1.0000e+00
       21  1    1    2  505  501 -1.6381255061e+01 -2.8189967733e+01 -5.3646274010e+01 6.2776926600e+01 0.0000000000e+00 0.0000e+00 -1.0000e+00
<mgrwt>
<rscale>  4 0.17441212E+03</rscale>
<asrwt>0</asrwt>
<pdfrwt beam="1">  1       21 0.20521266E-01 0.17454561E+03</pdfrwt>
<pdfrwt beam="2">  1       21 0.93243477E-01 0.17454561E+03</pdfrwt>
<totfact> 0.21523725E+04</totfact>
</mgrwt>
</event>
<event>
12      1 +1.4674046e+01 1.90177300e+02 7.54677100e-03 1.15923900e-01
       21 -1    0    0  501  502 +0.0000000000e+00 +0.0000000000e+00 +8.3198392555e+02 8.3198392555e+02 0.0000000000e+00 0.0000e+00 1.0000e+00
       21 -1    0    0  502  503 -0.0000000000e+00 -0.0000000000e+00 -4.2727511924e+01 4.2727511924e+01 0.0000000000e+00 0.0000e+00 1.0000e+00
       -6  2    1    2    0  503 +6.5169851531e+01 +3.2966371178e+01 +3.6964021215e+02 4.1569376456e+02 1.7559478431e+02 0.0000e+00 0.0000e+00
      -24  2    3    3    0    0 +5.1793867738e+01 +9.4152087791e+01 +2.2844969320e+02 2.6116395675e+02 6.6859027902e+01 0.0000e+00 0.0000e+00
        6  2    1    2  501    0 -6.5169851531e+01 -3.2966371178e+01 +4.1961620148e+02 4.5901767291e+02 1.7113029051e+02 0.0000e+00 0.0000e+00
       24  2    5    5    0    0 -2.2200853759e+01 -4.3299861009e+01 +1.3058478815e+02 1.6658928224e+02 9.1278947141e+01 0.0000e+00 0.0000e+00
        5  1    5    5  501    0 -4.2968997772e+01 +1.0333489831e+01 +2.8903141333e+02 2.9242839067e+02 4.7000000000e+00 0.0000e+00 -1.0000e+00
      -13  1    6    6    0    0 -1.9106216924e+01 +1.9847197386e+01 +8.3021313123e+01 8.7472836938e+01 0.0000000000e+00 0.0000e+00 1.0000e+00
       14  1    6    6    0    0 -3.0946368344e+00 -6.3147058395e+01 +4.7563475026e+01 7.9116445305e+01 0.0000000000e+00 0.0000e+00 -1.0000e+00
       -5  1    3    3    0  503 +1.3375983793e+01 -6.1185716613e+01 +1.4119051895e+02 1.5452980781e+02 4.7000000000e+00 0.0000e+00 1.0000e+00
       13  1    4    4    0    0 -1.4550511304e+01 +4.9457308872e+00 +2.9248328874e+01 3.3040011730e+01 0.0000000000e+00 0.0000e+00 -1.0000e+00
      -14  1    4    4    0    0 +6.6344379042e+01 +8.9206356903e+01 +1.9920136433e+02 2.2812394502e+02 0.0000000000e+00 0.0000e+00 1.0000e+00
<mgrwt>
<rscale>  2 0.18914032E+03</rscale>
<asrwt>0</asrwt>
<pdfrwt beam="1">  1       21 0.12799751E+00 0.19017734E+03</pdfrwt>
<pdfrwt beam="2">  1       21 0.65734640E-02 0.19017734E+03</pdfrwt>
<totfact> 0.75867278E+04</totfact>
</mgrwt>
</event>
<event>
12      1 +1.4674046e+01 1.91411900e+02 7.54677100e-03 1.15914000e-01
       21 -1    0    0  501  502 +0.0000000000e+00 +0.0000000000e+00 +5.9548107582e+01 5.9548107582e+01 0.0000000000e+00 0.0000e+00 1.0000e+00
       21 -1    0    0  502  503 -0.0000000000e+00 -0.0000000000e+00 -6.2603713180e+02 6.2603713180e+02 0.0000000000e+00 0.0000e+00 1.0000e+00
       -6  2    1    2    0  503 +7.5088258778e+01 -2.9629222064e+01 -3.7349763055e+02 4.1968915151e+02 1.7355796283e+02 0.0000e+00 0.0000e+00
      -24  2    3    3    0    0 +8.6831030261e+01 +3.5606377373e+01 -2.4023636178e+02 2.7077900454e+02 8.2464039753e+01 0.0000e+00 0.0000e+00
        6  2    1    2  501    0 -7.5088258778e+01 +2.9629222064e+01 -1.9299139366e+02 2.6589608787e+02 1.6413078355e+02 0.0000e+00 0.0000e+00
       24  2    5    5    0    0 -1.7609572586e+00 +3.7309441534e+01 -1.6409435691e+02 1.8656760842e+02 8.0532100074e+01 0.0000e+00 0.0000e+00
        5  1    5    5  501    0 -7.3327301519e+01 -7.6802194705e+00 -2.8897036753e+01 7.9328479453e+01 4.7000000000e+00 0.0000e+00 -1.0000e+00
      -13  1    6    6    0    0 +3.9379697015e+01 +1.7597630768e+01 -8.1743943645e+01 9.2425697013e+01 0.0000000000e+00 0.0000e+00 1.0000e+00
       14  1    6    6    0    0 -4.1140654274e+01 +1.9711810767e+01 -8.2350413266e+01 9.4141911404e+01 0.0000000000e+00 0.0000e+00 -1.0000e+00
       -5  1    3    3    0  503 -1.1742771483e+01 -6.5235599437e+01 -1.3326126877e+02 1.4891014697e+02 4.7000000000e+00 0.0000e+00 1.0000e+00
       13  1    4    4    0    0 +7.0631126736e+01 -2.8918661471e+00 -2.0251775758e+02 2.1450072515e+02 0.0000000000e+00 0.0000e+00 -1.0000e+00
      -14  1    4    4    0    0 +1.6199903525e+01 +3.8498243521e+01 -3.7718604197e+01 5.6278279389e+01 0.0000000000e+00 0.0000e+00 1.0000e+00
<mgrwt>
<rscale>  2 0.18924933E+03</rscale>
<asrwt>0</asrwt>
<pdfrwt beam="1">  1       21 0.91612477E-02 0.19141187E+03</pdfrwt>
<pdfrwt beam="2">  1       21 0.96313401E-01 0.19141187E+03</pdfrwt>
<totfact> 0.84980189E+04</totfact>
</mgrwt>
</event>
<event>
13      3 +1.4674046e+01 3.98736000e+02 7.54677100e-03 1.06796800e-01
        2 -1    0    0  503    0 -0.0000000000e+00 +0.0000000000e+00 +5.5116870781e+02 5.5116870781e+02 0.0000000000e+00 0.0000e+00 1.0000e+00
       21 -1    0    0  504  503 +0.0000000000e+00 -0.0000000000e+00 -4.5192122464e+02 4.5192122464e+02 0.0000000000e+00 0.0000e+00 -1.0000e+00
       -6  2    1    2    0  502 -9.2849504095e+01 -9.8053942422e+00 -1.5238667164e+02 2.4870121343e+02 1.7295496438e+02 0.0000e+00 0.0000e+00
      -24  2    3    3    0    0 +1.2745581405e+01 +2.2175260425e+01 -5.2302058610e+01 9.9663955947e+01 8.0890090616e+01 0.0000e+00 0.0000e+00
       24  2    1    2    0    0 -8.4615620511e+01 -6.8754956625e+01 +1.0524835938e+02 1.7147039398e+02 8.0236098880e+01 0.0000e+00 0.0000e+00
        5  1    1    2  501    0 +2.2640065907e+02 +6.7595140639e+01 -4.9358123216e+01 2.4142219408e+02 4.7000000000e+00 0.0000e+00 -1.0000e+00
      -13  1    5    5    0    0 -4.6520755302e+01 -8.1349816010e+01 +6.1400470722e+01 1.1203566862e+02 0.0000000000e+00 0.0000e+00 1.0000e+00
       14  1    5    5    0    0 -3.8094865209e+01 +1.2594859386e+01 +4.3847888656e+01 5.9434725353e+01 0.0000000000e+00 0.0000e+00 -1.0000e+00
       -5  1    3    3    0  502 -1.0559508550e+02 -3.1980654668e+01 -1.0008461303e+02 1.4903725749e+02 4.7000000000e+00 0.0000e+00 1.0000e+00
       13  1    4    4    0    0 +1.8826066288e+01 -2.6251907729e+01 -3.5613483512e+01 4.8082259090e+01 0.0000000000e+00 0.0000e+00 -1.0000e+00
      -14  1    4    4    0    0 -6.0804848832e+00 +4.8427168154e+01 -1.6688575098e+01 5.1581696857e+01 0.0000000000e+00 0.0000e+00 1.0000e+00
       21  1    1    2  504  501 -1.8714440414e+01 +7.7954289450e+00 -7.0585321208e+01 7.3438998921e+01 0.0000000000e+00 0.0000e+00 -1.0000e+00
        2  1    1    2  502    0 -3.0221094052e+01 +3.1697812833e+00 +2.6632923986e+02 2.6805713205e+02 0.0000000000e+00 0.0000e+00 1.0000e+00
<mgrwt>
<rscale>  4 0.33726245E+03</rscale>
<asrwt>0</asrwt>
<pdfrwt beam="2">  1       21 0.69526342E-01 0.39873598E+03</pdfrwt>
<pdfrwt beam="1">  1        2 0.84795186E-01 0.39873598E+03</pdfrwt>
<totfact> 0.12210462E+03</totfact>
</mgrwt>
</event>
<event>
12      1 +1.4674046e+01 4.60674500e+02 7.54677100e-03 1.02458600e-01
        1 -1    0    0  502    0 +0.0000000000e+00 +0.0000000000e+00 +1.0237080790e+03 1.0237080790e+03 0.0000000000e+00 0.0000e+00 -1.0000e+00
       -1 -1    0    0    0  501 -0.0000000000e+00 -0.0000000000e+00 -2.0996844176e+02 2.0996844176e+02 0.0000000000e+00 0.0000e+00 1.0000e+00
        6  2    1    2  502    0 -4.4135074550e+01 -4.2462496116e+02 +3.3760795084e+02 5.7131974863e+02 1.7370338010e+02 0.0000e+00 0.0000e+00
       24  2    3    3    0    0 -2.8395577870e+01 -8.4373388969e+01 +8.0324624556e+01 1.4442905522e+02 8.0514154492e+01 0.0000e+00 0.0000e+00
       -6  2    1    2    0  501 +4.4135074550e+01 +4.2462496116e+02 +4.7613168638e+02 6.6235677212e+02 1.7251332802e+02 0.0000e+00 0.0000e+00
      -24  2    5    5    0    0 +9.7190324896e+01 +2.8985651751e+02 +3.3147120712e+02 4.5759804275e+02 7.7846307415e+01 0.0000e+00 0.0000e+00
        5  1    3    3  502    0 -1.5739496680e+01 -3.4025157219e+02 +2.5728332628e+02 4.2689069341e+02 4.7000000000e+00 0.0000e+00 -1.0000e+00
      -13  1    4    4    0    0 +2.3248698386e+01 -3.8458991000e+01 +5.4545319088e+01 7.0673812688e+01 0.0000000000e+00 0.0000e+00 1.0000e+00
       14  1    4    4    0    0 -5.1644276257e+01 -4.5914397969e+01 +2.5779305468e+01 7.3755242535e+01 0.0000000000e+00 0.0000e+00 -1.0000e+00
       -5  1    5    5    0  501 -5.3055250346e+01 +1.3476844365e+02 +1.4466047926e+02 2.0475872937e+02 4.7000000000e+00 0.0000e+00 1.0000e+00
       13  1    6    6    0    0 +9.6578247134e+01 +1.9459086991e+02 +2.5807511358e+02 3.3733622504e+02 0.0000000000e+00 0.0000e+00 -1.0000e+00
      -14  1    6    6    0    0 +6.1207776263e-01 +9.5265647601e+01 +7.3396093539e+01 1.2026181771e+02 0.0000000000e+00 0.0000e+00 1.0000e+00
<mgrwt>
<rscale>  2 0.46067453E+03</rscale>
<asrwt>0</asrwt>
<pdfrwt beam="1">  1        1 0.15749355E+00 0.46067453E+03</pdfrwt>
<pdfrwt beam="2">  1       -1 0.32302838E-01 0.46067453E+03</pdfrwt>
<totfact> 0.13565891E+02</totfact>
</mgrwt>
</event>
<event>
13      2 +1.4674046e+01 2.49149400e+02 7.54677100e-03 1.11387300e-01
       21 -1    0    0  504  502 +0.0000000000e+00 +0.0000000000e+00 +1.6335417080e+02 1.6335417080e+02 0.0000000000e+00 0.0000e+00 -1.0000e+00
       21 -1    0    0  501  503 -0.0000000000e+00 -0.0000000000e+00 -6.1173804733e+02 6.1173804733e+02 0.0000000000e+00 0.0000e+00 -1.0000e+00
        6  2    1    2  501    0 -6.6162501964e+01 -1.7060057085e+02 -1.0329379704e+02 2.7166813946e+02 1.7219738107e+02 0.0000e+00 0.0000e+00
       24  2    3    3    0    0 -5.7991625588e+01 -4.8870039625e+01 -1.7324348983e+00 1.1285414218e+02 8.3556846902e+01 0.0000e+00 0.0000e+00
       -6  2    1    2    0  502 +8.3992744555e+01 +1.5786197298e+02 -3.8482303626e+02 4.5804900533e+02 1.7246720963e+02 0.0000e+00 0.0000e+00
      -24  2    5    5    0    0 +9.8994820498e+01 +1.7434201644e+02 -3.7640728820e+02 4.3376796478e+02 7.9228072523e+01 0.0000e+00 0.0000e+00
        5  1    3    3  501    0 -8.1708763758e+00 -1.2173053122e+02 -1.0156136214e+02 1.5881399728e+02 4.7000000000e+00 0.0000e+00 -1.0000e+00
      -13  1    4    4    0    0 -5.7887397955e+01 -6.7103145183e+01 +1.2795676235e+01 8.9540562125e+01 0.0000000000e+00 0.0000e+00 1.0000e+00
       14  1    4    4    0    0 -1.0422763302e-01 +1.8233105557e+01 -1.4528111134e+01 2.3313580050e+01 0.0000000000e+00 0.0000e+00 -1.0000e+00
       -5  1    5    5    0  502 -1.5002075943e+01 -1.6480043457e+01 -8.4157480590e+00 2.4281040553e+01 4.7000000000e+00 0.0000e+00 1.0000e+00
       13  1    6    6    0    0 +7.9679069028e+01 +1.2485663451e+02 -3.3543748283e+02 3.6668274859e+02 0.0000000000e+00 0.0000e+00 -1.0000e+00
      -14  1    6    6    0    0 +1.9315751470e+01 +4.9485381931e+01 -4.0969805372e+01 6.7085216195e+01 0.0000000000e+00 0.0000e+00 1.0000e+00
       21  1    1    2  504  503 -1.7830242592e+01 +1.2738597870e+01 +3.9732956770e+01 4.5375073336e+01 0.0000000000e+00 0.0000e+00 -1.0000e+00
<mgrwt>
<rscale>  3 0.24910266E+03</rscale>
<asrwt>0</asrwt>
<pdfrwt beam="1">  1       21 0.25131411E-01 0.24914935E+03</pdfrwt>
<pdfrwt beam="2">  1       21 0.94113544E-01 0.24914935E+03</pdfrwt>
<totfact> 0.13724967E+04</totfact>
</mgrwt>
</event>
<event>
12      1 +1.4674046e+01 1.85394600e+02 7.54677100e-03 1.16286500e-01
       21 -1    0    0  501  502 +0.0000000000e+00 +0.0000000000e+00 +4.8337909868e+02 4.8337909868e+02 0.0000000000e+00 0.0000e+00 1.0000e+00
       21 -1    0    0  502  503 -0.0000000000e+00 -0.0000000000e+00 -8.9237890784e+01 8.9237890784e+01 0.0000000000e+00 0.0000e+00 -1.0000e+00
        6  2    1    2  501    0 +1.2918011274e+01 -6.4844744259e+01 +6.7279107016e+01 1.9722487169e+02 1.7320351006e+02 0.0000e+00 0.0000e+00
       24  2    3    3    0    0 +4.3983643664e+01 +4.2368623462e+00 +7.8425662704e+01 1.2051973763e+02 8.0136824719e+01 0.0000e+00 0.0000e+00
       -6  2    1    2    0  503 -1.2918011274e+01 +6.4844744259e+01 +3.2686210088e+02 3.7539211777e+02 1.7236209914e+02 0.0000e+00 0.0000e+00
      -24  2    5    5    0    0 +3.6530443812e+01 +2.4431368259e+00 +2.4865820337e+02 2.6369140199e+02 7.9760962496e+01 0.0000e+00 0.0000e+00
        5  1    3    3  501    0 -3.1065632390e+01 -6.9081606605e+01 -1.1146555688e+01 7.6705134056e+01 4.7000000000e+00 0.0000e+00 -1.0000e+00
      -13  1    4    4    0    0 +1.8570849887e+01 -3.0686382073e+01 +6.6753320958e+01 7.5779524736e+01 0.0000000000e+00 0.0000e+00 1.0000e+00
       14  1    4    4    0    0 +2.5412793777e+01 +3.4923244419e+01 +1.1672341746e+01 4.4740212898e+01 0.0000000000e+00 0.0000e+00 -1.0000e+00
       -5  1    5    5    0  503 -4.9448455086e+01 +6.2401607433e+01 +7.8203897510e+01 1.1170071578e+02 4.7000000000e+00 0.0000e+00 1.0000e+00
       13  1    6    6    0    0 +5.3732629189e+01 +2.4725948577e+01 +1.5535099080e+02 1.6623025692e+02 0.0000000000e+00 0.0000e+00 -1.0000e+00
      -14  1    6    6    0    0 -1.7202185378e+01 -2.2282811751e+01 +9.3307212563e+01 9.7461145066e+01 0.0000000000e+00 0.0000e+00 1.0000e+00
<mgrwt>
<rscale>  2 0.18519787E+03</rscale>
<asrwt>0</asrwt>
<pdfrwt beam="1">  1       21 0.74366013E-01 0.18539464E+03</pdfrwt>
<pdfrwt beam="2">  1       21 0.13728907E-01 0.18539464E+03</pdfrwt>
<totfact> 0.74872033E+04</totfact>
</mgrwt>
</event>
<event>
14      3 +1.4674046e+01 2.04638500e+02 7.54677100e-03 1.14647000e-01
       21 -1    0    0  501  502 +0.0000000000e+00 +0.0000000000e+00 +2.0496696296e+02 2.0496696296e+02 0.0000000000e+00 0.0000e+00 1.0000e+00
       21 -1    0    0  504  503 -0.0000000000e+00 -0.0000000000e+00 -7.6413832138e+02 7.6413832138e+02 0.0000000000e+00 0.0000e+00 -1.0000e+00
       -6  2    1    2    0  505 -4.1729599390e+01 +1.2997869108e+02 -8.5306731842e+01 2.3437198104e+02 1.7034426142e+02 0.0000e+00 0.0000e+00
      -24  2    3    3    0    0 -5.5866567906e+01 +1.1345085571e+02 -5.9787470246e+00 1.5198240405e+02 8.4087666485e+01 0.0000e+00 0.0000e+00
        6  2    1    2  501    0 +1.7513370795e+01 -9.3255397301e+01 +5.0951309495e+01 2.0438461907e+02 1.7370592763e+02 0.0000e+00 0.0000e+00
       24  2    5    5    0    0 -4.8385464573e+00 -1.2899661801e+02 +5.4199266281e+01 1.6184425841e+02 8.1193993156e+01 0.0000e+00 0.0000e+00
        5  1    5    5  501    0 +2.2351917252e+01 +3.5741220706e+01 -3.2479567867e+00 4.2540360667e+01 4.7000000000e+00 0.0000e+00 -1.0000e+00
      -13  1    6    6    0    0 -3.5391053220e+01 -4.3641847979e+01 +4.2464351459e+01 7.0429813913e+01 0.0000000000e+00 0.0000e+00 1.0000e+00
       14  1    6    6    0    0 +3.0552506763e+01 -8.5354770029e+01 +1.1734914823e+01 9.1414444494e+01 0.0000000000e+00 0.0000e+00 -1.0000e+00
       -5  1    3    3    0  505 +1.4136968517e+01 +1.6527835369e+01 -7.9327984817e+01 8.2389576987e+01 4.7000000000e+00 0.0000e+00 1.0000e+00
       13  1    4    4    0    0 -3.2068280714e+01 +1.2217292275e+02 -2.0113883954e+00 1.2632752418e+02 0.0000000000e+00 0.0000e+00 -1.0000e+00
      -14  1    4    4    0    0 -2.3798287192e+01 -8.7220670447e+00 -3.9673586293e+00 2.5654879873e+01 0.0000000000e+00 0.0000e+00 1.0000e+00
       21  1    1    2  504  502 -2.0053458964e+01 -2.0274256225e+01 -1.6490473421e+02 1.6735219762e+02 0.0000000000e+00 0.0000e+00 -1.0000e+00
       21  1    1    2  505  503 +4.4269687559e+01 -1.6449037551e+01 -3.5991120186e+02 3.6299648661e+02 0.0000000000e+00 0.0000e+00 -1.0000e+00
<mgrwt>
<rscale>  4 0.20392331E+03</rscale>
<asrwt>0</asrwt>
<pdfrwt beam="1">  1       21 0.31533379E-01 0.20463847E+03</pdfrwt>
<pdfrwt beam="2">  1       21 0.11755974E+00 0.20463847E+03</pdfrwt>
<totfact> 0.53197632E+03</totfact>
</mgrwt>
</event>
<event>
12      1 +1.4674046e+01 1.78142900e+02 7.54677100e-03 1.17006500e-01
       21 -1    0    0  503  502 +0.0000000000e+00 +0.0000000000e+00 +7.5972305047e+01 7.5972305047e+01 0.0000000000e+00 0.0000e+00 1.0000e+00
       21 -1    0    0  501  503 -0.0000000000e+00 -0.0000000000e+00 -6.7795156292e+02 6.7795156292e+02 0.0000000000e+00 0.0000e+00 1.0000e+00
        6  2    1    2  501    0 +3.8500661136e+01 +6.8903987899e+00 -5.3550527168e+02 5.6378260700e+02 1.7191612330e+02 0.0000e+00 0.0000e+00
       24  2    3    3    0    0 -2.1028784263e+01 -7.8227242767e+00 -4.5299420082e+02 4.6087294917e+02 8.1833517070e+01 0.0000e+00 0.0000e+00
       -6  2    1    2    0  502 -3.8500661136e+01 -6.8903987899e+00 -6.6473986186e+01 1.9014126097e+02 1.7379623062e+02 0.0000e+00 0.0000e+00
      -24  2    5    5    0    0 +3.1477853933e+01 +1.8542677691e+01 -1.8544099149e+01 1.0146658577e+02 9.2827249391e+01 0.0000e+00 0.0000e+00
        5  1    3    3  501    0 +5.9529445398e+01 +1.4713123067e+01 -8.2511070864e+01 1.0290965783e+02 4.7000000000e+00 0.0000e+00 -1.0000e+00
      -13  1    4    4    0    0 +1.9865986967e+01 +9.9236824248e-01 -3.1146498242e+01 3.6956008789e+01 0.0000000000e+00 0.0000e+00 1.0000e+00
       14  1    4    4    0    0 -4.0894771230e+01 -8.8150925192e+00 -4.2184770258e+02 4.2391694038e+02 0.0000000000e+00 0.0000e+00 -1.0000e+00
       -5  1    5    5    0  502 -6.9978515068e+01 -2.5433076481e+01 -4.7929887037e+01 8.8674675200e+01 4.7000000000e+00 0.0000e+00 1.0000e+00
       13  1    6    6    0    0 +3.2627848573e+01 +4.5998543833e+01 +1.4754130985e+01 5.8293455194e+01 0.0000000000e+00 0.0000e+00 -1.0000e+00
      -14  1    6    6    0    0 -1.1499946408e+00 -2.7455866142e+01 -3.3298230134e+01 4.3173130572e+01 0.0000000000e+00 0.0000e+00 1.0000e+00
<mgrwt>
<rscale>  2 0.17768273E+03</rscale>
<asrwt>0</asrwt>
<pdfrwt beam="1">  1       21 0.11688047E-01 0.17814294E+03</pdfrwt>
<pdfrwt beam="2">  1       21 0.10430024E+00 0.17814294E+03</pdfrwt>
<totfact> 0.46010736E+04</totfact>
</mgrwt>
</event>
<event>
11      1 +1.4674046e+01 3.46542200e+02 7.54677100e-03 1.06725100e-01
       21 -1    0    0  503  502 +0.0000000000e+00 +0.0000000000e+00 +7.1669227436e+02 7.1669227436e+02 0.0000000000e+00 0.0000e+00 1.0000e+00
       21 -1    0    0  501  503 -0.0000000000e+00 -0.0000000000e+00 -1.6415466283e+02 1.6415466283e+02 0.0000000000e+00 0.0000e+00 -1.0000e+00
       24  2    1    2    0    0 -1.4074053099e+02 -2.0402791602e+02 +4.2223002771e+02 4.9657391164e+02 8.2898527399e+01 0.0000e+00 0.0000e+00
       -6  2    1    2    0  502 +1.6136810027e+02 +2.1081668281e+02 +1.5337660459e+02 3.5224407477e+02 1.7340175270e+02 0.0000e+00 0.0000e+00
      -24  2    4    4    0    0 +1.6483255709e+02 +1.7166726059e+02 +6.9853092866e+01 2.5981601230e+02 7.7365919048e+01 0.0000e+00 0.0000e+00
        5  1    1    2  501    0 -2.0627569280e+01 -6.7887667980e+00 -2.3069020761e+01 3.2028950778e+01 4.7000000000e+00 0.0000e+00 -1.0000e+00
      -13  1    3    3    0    0 -1.5127837582e+02 -1.8861507115e+02 +3.8000181460e+02 4.5040223263e+02 0.0000000000e+00 0.0000e+00 1.0000e+00
       14  1    3    3    0    0 +1.0537844831e+01 -1.5412844867e+01 +4.2228213106e+01 4.6171679011e+01 0.0000000000e+00 0.0000e+00 -1.0000e+00
       -5  1    4    4    0  502 -3.4644568229e+00 +3.9149422227e+01 +8.3523511721e+01 9.2428062470e+01 4.7000000000e+00 0.0000e+00 1.0000e+00
       13  1    5    5    0    0 +6.4081648054e+01 +9.8210203024e+01 +6.7082079149e+01 1.3509887838e+02 0.0000000000e+00 0.0000e+00 -1.0000e+00
      -14  1    5    5    0    0 +1.0075090903e+02 +7.3457057562e+01 +2.7710137171e+00 1.2471713392e+02 0.0000000000e+00 0.0000e+00 1.0000e+00
<mgrwt>
<rscale>  2 0.33893439E+03</rscale>
<asrwt>0</asrwt>
<pdfrwt beam="1">  1       21 0.11026035E+00 0.34654217E+03</pdfrwt>
<pdfrwt beam="2">  1       21 0.25254564E-01 0.34654217E+03</pdfrwt>
<totfact> 0.88692146E+03</totfact>
</mgrwt>
</event>
<event>
13      2 +1.4674046e+01 3.46555300e+02 7.54677100e-03 1.07451400e-01
       21 -1    0    0  504  502 +0.0000000000e+00 +0.0000000000e+00 +2.0530807148e+03 2.0530807148e+03 0.0000000000e+00 0.0000e+00 1.0000e+00
       21 -1    0    0  502  503 -0.0000000000e+00 -0.0000000000e+00 -1.5224330909e+02 1.5224330909e+02 0.0000000000e+00 0.0000e+00 -1.0000e+00
       -6  2    1    2    0  503 +6.1782533417e+01 +1.8416876699e+02 +7.3314932450e+02 7.7782956666e+02 1.7255632873e+02 0.0000e+00 0.0000e+00
      -24  2    3    3    0    0 +2.3458860458e+01 +1.6711815760e+02 +3.9472876324e+02 4.3678705689e+02 8.0581262091e+01 0.0000e+00 0.0000e+00
        6  2    1    2  501    0 -3.0925517797e+02 -9.9180698046e+01 +1.8743876388e+02 4.1292341201e+02 1.7290713699e+02 0.0000e+00 0.0000e+00
       24  2    5    5    0    0 -2.3220484204e+02 -1.0190780335e+02 +7.5712204283e+01 2.7709592773e+02 8.2131152644e+01 0.0000e+00 0.0000e+00
        5  1    5    5  501    0 -7.7050335928e+01 +2.7271053059e+00 +1.1172655959e+02 1.3582748429e+02 4.7000000000e+00 0.0000e+00 -1.0000e+00
      -13  1    6    6    0    0 -1.7074391585e+01 +1.3971688456e+01 +3.8699506239e+00 2.2399094717e+01 0.0000000000e+00 0.0000e+00 1.0000e+00
       14  1    6    6    0    0 -2.1513045045e+02 -1.1587949181e+02 +7.1842253659e+01 2.5469683301e+02 0.0000000000e+00 0.0000e+00 -1.0000e+00
       -5  1    3    3    0  503 +3.8323672959e+01 +1.7050609388e+01 +3.3842056126e+02 3.4104250978e+02 4.7000000000e+00 0.0000e+00 1.0000e+00
       13  1    4    4    0    0 -2.7651109529e+00 +3.6467315986e+01 +2.6431190591e+01 4.5123373210e+01 0.0000000000e+00 0.0000e+00 -1.0000e+00
      -14  1    4    4    0    0 +2.6223971411e+01 +1.3065084161e+02 +3.6829757265e+02 3.9166368368e+02 0.0000000000e+00 0.0000e+00 1.0000e+00
       21  1    1    2  504  501 +2.4747264455e+02 -8.4988068941e+01 +9.8024931734e+02 1.0145710452e+03 0.0000000000e+00 0.0000e+00 1.0000e+00
<mgrwt>
<rscale>  3 0.32247881E+03</rscale>
<asrwt>0</asrwt>
<pdfrwt beam="1">  1       21 0.31585855E+00 0.34655534E+03</pdfrwt>
<pdfrwt beam="2">  1       21 0.23422049E-01 0.34655534E+03</pdfrwt>
<totfact> 0.40147465E+02</totfact>
</mgrwt>
</event>
<event>
14      3 +1.4674046e+01 3.41338800e+02 7.54677100e-03 1.06631600e-01
       21 -1    0    0  504  502 +0.0000000000e+00 +0.0000000000e+00 +7.1894324879e+02 7.1894324879e+02 0.0000000000e+00 0.0000e+00 1.0000e+00
       21 -1    0    0  505  503 -0.0000000000e+00 -0.0000000000e+00 -8.1015609208e+02 8.1015609208e+02 0.0000000000e+00 0.0000e+00 1.0000e+00
       -6  2    1    2    0  503 -3.6446887108e+02 +4.4257915877e+01 -1.2187919042e+02 4.2356518670e+02 1.7250104122e+02 0.0000e+00 0.0000e+00
      -24  2    3    3    0    0 -3.6855233172e+02 +2.8575599981e+01 -9.2491080160e+01 3.8967771546e+02 8.1527516091e+01 0.0000e+00 0.0000e+00
        6  2    1    2  501    0 +2.7060451206e+02 +8.4365037324e+00 -4.8221190745e+02 5.7978522391e+02 1.7413961535e+02 0.0000e+00 0.0000e+00
       24  2    5    5    0    0 +1.2792836973e+02 +5.8721838557e+01 -3.3002116807e+02 3.6514783751e+02 6.7860516925e+01 0.0000e+00 0.0000e+00
        5  1    5    5  501    0 +1.4267614232e+02 -5.0285334825e+01 -1.5219073938e+02 2.1463738640e+02 4.7000000000e+00 0.0000e+00 -1.0000e+00
      -13  1    6    6    0    0 +4.4212702980e+01 +1.0536418241e+01 -1.8783203014e+02 1.9325281566e+02 0.0000000000e+00 0.0000e+00 1.0000e+00
       14  1    6    6    0    0 +8.3715666755e+01 +4.8185420317e+01 -1.4218913793e+02 1.7189502185e+02 0.0000000000e+00 0.0000e+00 -1.0000e+00
       -5  1    3    3    0  503 +4.0834606468e+00 +1.5682315896e+01 -2.9388110257e+01 3.3887471242e+01 4.7000000000e+00 0.0000e+00 1.0000e+00
       13  1    4    4    0    0 -1.1348789813e+01 +1.5575351247e+01 +3.4682896981e+00 1.9581001764e+01 0.0000000000e+00 0.0000e+00 -1.0000e+00
      -14  1    4    4    0    0 -3.5720354191e+02 +1.3000248734e+01 -9.5959369858e+01 3.7009671369e+02 0.0000000000e+00 0.0000e+00 1.0000e+00
       21  1    1    2  504  501 +2.9400601218e+01 -2.6099373380e+01 +2.7708437312e+02 2.7985946915e+02 0.0000000000e+00 0.0000e+00 1.0000e+00
       21  1    1    2  505  502 +6.4463757804e+01 -2.6595046230e+01 +2.3579388146e+02 2.4588946112e+02 0.0000000000e+00 0.0000e+00 1.0000e+00
<mgrwt>
<rscale>  4 0.34113038E+03</rscale>
<asrwt>0</asrwt>
<pdfrwt beam="1">  1       21 0.11060665E+00 0.34133883E+03</pdfrwt>
<pdfrwt beam="2">  1       21 0.12463940E+00 0.34133883E+03</pdfrwt>
<totfact> 0.27107535E+02</totfact>
</mgrwt>
</event>
<event>
14      3 +1.4674046e+01 2.35487200e+02 7.54677100e-03 1.12285300e-01
       21 -1    0    0  501  503 +0.0000000000e+00 +0.0000000000e+00 +4.0455465503e+02 4.0455465503e+02 0.0000000000e+00 0.0000e+00 1.0000e+00
        1 -1    0    0  504    0 -0.0000000000e+00 -0.0000000000e+00 -2.6095525794e+02 2.6095525794e+02 0.0000000000e+00 0.0000e+00 1.0000e+00
       -6  2    1    2    0  502 -2.1318727117e+02 +5.5308271560e+00 +4.8048608401e+01 2.7876307148e+02 1.7297623714e+02 0.0000e+00 0.0000e+00
      -24  2    3    3    0    0 -9.7399094640e+01 +3.9388608134e+01 -8.6225449614e-01 1.4850327851e+02 1.0494967441e+02 0.0000e+00 0.0000e+00
        6  2    1    2  501    0 +1.1548641575e+02 -5.8412174405e+01 +9.9827953520e+01 2.3788203430e+02 1.7283850149e+02 0.0000e+00 0.0000e+00
       24  2    5    5    0    0 +1.1733266254e+02 +6.3801676786e+00 +9.8026095023e+01 1.7286824412e+02 8.0415510199e+01 0.0000e+00 0.0000e+00
        5  1    5    5  501    0 -1.8462467874e+00 -6.4792342083e+01 +1.8018584972e+00 6.5013790182e+01 4.7000000000e+00 0.0000e+00 -1.0000e+00
      -13  1    6    6    0    0 +4.6272603251e+00 +2.1620700222e+01 +3.8756307043e+01 4.4619699145e+01 0.0000000000e+00 0.0000e+00 1.0000e+00
       14  1    6    6    0    0 +1.1270540221e+02 -1.5240532543e+01 +5.9269787980e+01 1.2824854497e+02 0.0000000000e+00 0.0000e+00 -1.0000e+00
       -5  1    3    3    0  502 -1.1578817653e+02 -3.3857780978e+01 +4.8910862897e+01 1.3025979297e+02 4.7000000000e+00 0.0000e+00 1.0000e+00
       13  1    4    4    0    0 +8.0353009536e+00 +9.0722813702e+00 +3.1805646418e+01 3.4036326105e+01 0.0000000000e+00 0.0000e+00 -1.0000e+00
      -14  1    4    4    0    0 -1.0543439559e+02 +3.0316326764e+01 -3.2667900914e+01 1.1446695240e+02 0.0000000000e+00 0.0000e+00 1.0000e+00
       21  1    1    2  504  503 +1.7707023420e+01 +5.8465718732e+01 +2.1301247856e+01 6.4695611176e+01 0.0000000000e+00 0.0000e+00 -1.0000e+00
        1  1    1    2  502    0 +7.9993831996e+01 -5.5843714831e+00 -2.5578412692e+01 8.4169196017e+01 0.0000000000e+00 0.0000e+00 1.0000e+00
<mgrwt>
<rscale>  4 0.23546193E+03</rscale>
<asrwt>0</asrwt>
<pdfrwt beam="1">  1       21 0.62239178E-01 0.23548722E+03</pdfrwt>
<pdfrwt beam="2">  1        1 0.40146963E-01 0.23548722E+03</pdfrwt>
<totfact> 0.26896531E+03</totfact>
</mgrwt>
</event>
<event>
12      2 +1.4674046e+01 1.80532500e+02 7.54677100e-03 1.16762400e-01
       21 -1    0    0  501  503 +0.0000000000e+00 +0.0000000000e+00 +2.2585813072e+02 2.2585813072e+02 0.0000000000e+00 0.0000e+00 1.0000e+00
       -2 -1    0    0    0  501 -0.0000000000e+00 -0.0000000000e+00 -4.9347989396e+02 4.9347989396e+02 0.0000000000e+00 0.0000e+00 -1.0000e+00
        6  2    1    2  502    0 -3.7661078613e+01 +3.2875627977e+01 -5.8899549197e+01 1.9098158785e+02 1.7465865637e+02 0.0000e+00 0.0000e+00
       -6  2    1    2    0  503 +4.3103686114e+01 -1.3404160863e+01 +1.0926707169e+02 2.0972507326e+02 1.7322734805e+02 0.0000e+00 0.0000e+00
      -24  2    4    4    0    0 -5.8288087969e-01 -2.3725050781e+01 -7.6863108499e+00 8.4364710337e+01 8.0592227858e+01 0.0000e+00 0.0000e+00
        5  1    3    3  502    0 -5.2079013719e+01 -2.7315173177e+01 +3.8503708310e+01 7.0448335035e+01 4.7000000000e+00 0.0000e+00 -1.0000e+00
      -13  1    3    3    0    0 -1.0808587869e+01 +9.8687895024e+00 -1.7962735924e+01 2.3170637882e+01 0.0000000000e+00 0.0000e+00 1.0000e+00
       14  1    3    3    0    0 +2.5226522975e+01 +5.0322011652e+01 -7.9440521582e+01 9.7362614937e+01 0.0000000000e+00 0.0000e+00 -1.0000e+00
       -5  1    4    4    0  503 +4.3686566994e+01 +1.0320889917e+01 +1.1695338254e+02 1.2536036292e+02 4.7000000000e+00 0.0000e+00 1.0000e+00
       13  1    5    5    0    0 -1.1340662947e+01 -4.5184750958e+01 -2.6741658163e+01 5.3715813654e+01 0.0000000000e+00 0.0000e+00 -1.0000e+00
      -14  1    5    5    0    0 +1.0757782067e+01 +2.1459700177e+01 +1.9055347313e+01 3.0648896683e+01 0.0000000000e+00 0.0000e+00 1.0000e+00
       -2  1    1    2    0  502 -5.4426075018e+00 -1.9471467114e+01 -3.1798928573e+02 3.1863136356e+02 0.0000000000e+00 0.0000e+00 -1.0000e+00
<mgrwt>
<rscale>  3 0.18018544E+03</rscale>
<asrwt>0</asrwt>
<pdfrwt beam="1">  1       21 0.34747405E-01 0.18053254E+03</pdfrwt>
<pdfrwt beam="2">  1       -2 0.75919984E-01 0.18053254E+03</pdfrwt>
<totfact> 0.10471061E+03</totfact>
</mgrwt>
</event>
<event>
12      1 +1.4674046e+01 1.84803300e+02 7.54677100e-03 1.16345900e-01
       21 -1    0    0  503  502 +0.0000000000e+00 +0.0000000000e+00 +5.6101269101e+02 5.6101269101e+02 0.0000000000e+00 0.0000e+00 -1.0000e+00
       21 -1    0    0  501  503 -0.0000000000e+00 -0.0000000000e+00 -1.2269032872e+02 1.2269032872e+02 0.0000000000e+00 0.0000e+00 -1.0000e+00
        6  2    1    2  501    0 +5.3900798921e+01 +2.6893289884e+01 -2.3823904070e+01 1.8633261967e+02 1.7471039346e+02 0.0000e+00 0.0000e+00
       24  2    3    3    0    0 +7.4925584723e+01 -1.6311543036e+01 -5.9730278768e+01 1.2616571058e+02 8.0437370929e+01 0.0000e+00 0.0000e+00
       -6  2    1    2    0  502 -5.3900798921e+01 -2.6893289884e+01 +4.6214626636e+02 4.9737040005e+02 1.7369397853e+02 0.0000e+00 0.0000e+00
      -24  2    5    5    0    0 -8.3352144417e+01 +9.9286870371e+00 +4.1362195407e+02 4.2954755273e+02 7.9886296486e+01 0.0000e+00 0.0000e+00
        5  1    3    3  501    0 -2.1024785802e+01 +4.3204832920e+01 +3.5906374698e+01 6.0166909091e+01 4.7000000000e+00 0.0000e+00 -1.0000e+00
      -13  1    4    4    0    0 +3.8600499239e+01 +2.3759755257e+01 +3.4868313840e-01 4.5328204148e+01 0.0000000000e+00 0.0000e+00 1.0000e+00
       14  1    4    4    0    0 +3.6325085484e+01 -4.0071298293e+01 -6.0078961907e+01 8.0837506431e+01 0.0000000000e+00 0.0000e+00 -1.0000e+00
       -5  1    5    5    0  502 +2.9451345496e+01 -3.6821976921e+01 +4.8524312290e+01 6.7822847324e+01 4.7000000000e+00 0.0000e+00 1.0000e+00
       13  1    6    6    0    0 -5.9294525124e+01 -4.8362918309e+00 +1.1391278296e+02 1.2851207161e+02 0.0000000000e+00 0.0000e+00 -1.0000e+00
      -14  1    6    6    0    0 -2.4057619293e+01 +1.4764978868e+01 +2.9970917111e+02 3.0103548112e+02 0.0000000000e+00 0.0000e+00 1.0000e+00
<mgrwt>
<rscale>  2 0.18456270E+03</rscale>
<asrwt>0</asrwt>
<pdfrwt beam="1">  1       21 0.86309644E-01 0.18480332E+03</pdfrwt>
<pdfrwt beam="2">  1       21 0.18875435E-01 0.18480332E+03</pdfrwt>
<totfact> 0.29876528E+04</totfact>
</mgrwt>
</event>
<event>
13      3 +1.4674046e+01 3.68751200e+02 7.54677100e-03 1.06864300e-01
        2 -1    0    0  504    0 -0.0000000000e+00 +0.0000000000e+00 +1.6005822563e+03 1.6005822563e+03 0.0000000000e+00 0.0000e+00 -1.0000e+00
       21 -1    0    0  501  503 +0.0000000000e+00 -0.0000000000e+00 -3.8078293961e+02 3.8078293961e+02 0.0000000000e+00 0.0000e+00 1.0000e+00
       -6  2    1    2    0  502 -7.1923974612e+01 -1.9027122489e+02 +6.1850951417e+02 6.7363327525e+02 1.7277607839e+02 0.0000e+00 0.0000e+00
      -24  2    3    3    0    0 -8.4317532213e+01 -7.9428965090e+01 +2.3134720293e+02 2.7069860055e+02 7.9610283918e+01 0.0000e+00 0.0000e+00
       24  2    1    2    0    0 +1.7409284585e+01 +2.3953521166e+02 +1.6182202305e+01 2.5355963356e+02 7.9689543134e+01 0.0000e+00 0.0000e+00
        5  1    1    2  501    0 +3.7347402417e+01 -6.9508392133e+01 +1.0515289367e+02 1.3155024170e+02 4.7000000000e+00 0.0000e+00 -1.0000e+00
      -13  1    5    5    0    0 +8.9863759916e-01 +6.9463393344e+01 -3.1327701861e+01 7.6206269219e+01 0.0000000000e+00 0.0000e+00 1.0000e+00
       14  1    5    5    0    0 +1.6510646986e+01 +1.7007181832e+02 +4.7509904166e+01 1.7735336434e+02 0.0000000000e+00 0.0000e+00 -1.0000e+00
       -5  1    3    3    0  502 +1.2393557601e+01 -1.1084225980e+02 +3.8716231124e+02 4.0293467470e+02 4.7000000000e+00 0.0000e+00 1.0000e+00
       13  1    4    4    0    0 -4.5591091286e+01 -6.6418491906e+01 +7.8485899135e+01 1.1247221895e+02 0.0000000000e+00 0.0000e+00 -1.0000e+00
      -14  1    4    4    0    0 -3.8726440927e+01 -1.3010473184e+01 +1.5286130379e+02 1.5822638161e+02 0.0000000000e+00 0.0000e+00 1.0000e+00
       21  1    1    2  504  503 +2.1623201842e+01 -8.9015124195e+00 -2.2040500175e+02 2.2164197386e+02 0.0000000000e+00 0.0000e+00 1.0000e+00
        2  1    1    2  502    0 -4.4559142320e+00 +2.9145917783e+01 +7.0035970829e+02 7.0098007154e+02 0.0000000000e+00 0.0000e+00 -1.0000e+00
<mgrwt>
<rscale>  4 0.33569803E+03</rscale>
<asrwt>0</asrwt>
<pdfrwt beam="2">  1       21 0.58581992E-01 0.36875117E+03</pdfrwt>
<pdfrwt beam="1">  1        2 0.24624342E+00 0.36875117E+03</pdfrwt>
<totfact> 0.38416849E+02</totfact>
</mgrwt>
</event>
<event>
12      1 +1.4674046e+01 2.35295500e+02 7.54677100e-03 1.12341200e-01
       21 -1    0    0  501  502 +0.0000000000e+00 +0.0000000000e+00 +3.3022279044e+02 3.3022279044e+02 0.0000000000e+00 0.0000e+00 1.0000e+00
       21 -1    0    0  502  503 -0.0000000000e+00 -0.0000000000e+00 -2.0918090765e+02 2.0918090765e+02 0.0000000000e+00 0.0000e+00 1.0000e+00
       -6  2    1    2    0  503 -3.7535679441e+01 +1.5286729603e+02 -6.2537399805e+01 2.4096556918e+02 1.7139469575e+02 0.0000e+00 0.0000e+00
      -24  2    3    3    0    0 -4.3834148163e+01 +4.0396399472e+01 +1.9447461071e+01 1.0156334290e+02 7.9897479575e+01 0.0000e+00 0.0000e+00
        6  2    1    2  501    0 +3.7535679441e+01 -1.5286729603e+02 +1.8357928260e+02 2.9843812891e+02 1.7489032666e+02 0.0000e+00 0.0000e+00
       24  2    5    5    0    0 +9.1951728843e+00 -1.1576124868e+01 +2.6117916502e+01 8.4937423580e+01 7.9458558323e+01 0.0000e+00 0.0000e+00
        5  1    5    5  501    0 +2.8340506557e+01 -1.4129117116e+02 +1.5746136610e+02 2.1350070533e+02 4.7000000000e+00 0.0000e+00 -1.0000e+00
      -13  1    6    6    0    0 +3.9022686902e+01 -2.5308682671e+01 +2.3185376090e+01 5.1969810237e+01 0.0000000000e+00 0.0000e+00 1.0000e+00
       14  1    6    6    0    0 -2.9827514018e+01 +1.3732557803e+01 +2.9325404121e+00 3.2967613344e+01 0.0000000000e+00 0.0000e+00 -1.0000e+00
       -5  1    3    3    0  503 +6.2984687222e+00 +1.1247089656e+02 -8.1984860876e+01 1.3940222629e+02 4.7000000000e+00 0.0000e+00 1.0000e+00
       13  1    4    4    0    0 -6.4718911375e+01 +4.1434996288e+01 +2.3299185280e+01 8.0300986555e+01 0.0000000000e+00 0.0000e+00 -1.0000e+00
      -14  1    4    4    0    0 +2.0884763212e+01 -1.0385968159e+00 -3.8517242086e+00 2.1262356340e+01 0.0000000000e+00 0.0000e+00 1.0000e+00
<mgrwt>
<rscale>  2 0.23464618E+03</rscale>
<asrwt>0</asrwt>
<pdfrwt beam="1">  1       21 0.50803506E-01 0.23529548E+03</pdfrwt>
<pdfrwt beam="2">  1       21 0.32181678E-01 0.23529548E+03</pdfrwt>
<totfact> 0.33505408E+04</totfact>
</mgrwt>
</event>
<event>
12      2 +1.4674046e+01 2.59988200e+02 7.54677100e-03 1.11692300e-01
       21 -1    0    0  504  502 +0.0000000000e+00 +0.0000000000e+00 +2.0960491475e+02 2.0960491475e+02 0.0000000000e+00 0.0000e+00 -1.0000e+00
       21 -1    0    0  502  503 -0.0000000000e+00 -0.0000000000e+00 -7.2341612297e+02 7.2341612297e+02 0.0000000000e+00 0.0000e+00 1.0000e+00
      -24  2    1    2    0    0 +7.3093286164e+00 -9.2678488627e+01 -3.0437673943e+02 3.2839963985e+02 8.0983920679e+01 0.0000e+00 0.0000e+00
        6  2    1    2  501    0 -7.0788256068e+01 +6.7181327769e+01 -2.9704462556e+02 3.5736967671e+02 1.7307012527e+02 0.0000e+00 0.0000e+00
       24  2    4    4    0    0 -3.6370683105e+01 +1.1746130302e+00 -2.6111183032e+02 2.7457649165e+02 7.6737575712e+01 0.0000e+00 0.0000e+00
        5  1    4    4  501    0 -3.4417572963e+01 +6.6006714739e+01 -3.5932795239e+01 8.2793185064e+01 4.7000000000e+00 0.0000e+00 -1.0000e+00
      -13  1    5    5    0    0 -3.7217275301e+01 +3.2840386234e+01 -1.9572661165e+02 2.0192207174e+02 0.0000000000e+00 0.0000e+00 1.0000e+00
       14  1    5    5    0    0 +8.4659219619e-01 -3.1665773204e+01 -6.5385218675e+01 7.2654419908e+01 0.0000000000e+00 0.0000e+00 -1.0000e+00
       -5  1    1    2    0  503 +9.5898482615e+01 +3.1734209067e+01 -4.4935409970e+01 1.1065649580e+02 4.7000000000e+00 0.0000e+00 1.0000e+00
       13  1    3    3    0    0 -3.6275809490e+01 -3.0985864615e+01 -1.1333979301e+02 1.2297140659e+02 0.0000000000e+00 0.0000e+00 -1.0000e+00
      -14  1    3    3    0    0 +4.3585138107e+01 -6.1692624012e+01 -1.9103694642e+02 2.0542823326e+02 0.0000000000e+00 0.0000e+00 1.0000e+00
       21  1    1    2  504  501 -3.2419555163e+01 -6.2370482092e+00 +1.3254556674e+02 1.3659522536e+02 0.0000000000e+00 0.0000e+00 -1.0000e+00
<mgrwt>
<rscale>  3 0.24435828E+03</rscale>
<asrwt>0</asrwt>
<pdfrwt beam="1">  1       21 0.32246910E-01 0.25998817E+03</pdfrwt>
<pdfrwt beam="2">  1       21 0.11129479E+00 0.25998817E+03</pdfrwt>
<totfact> 0.56055825E+03</totfact>
</mgrwt>
</event>
<event>
12      1 +1.4674046e+01 1.85754600e+02 7.54677100e-03 1.16234700e-01
       -1 -1    0    0    0  501 -0.0000000000e+00 +0.0000000000e+00 +4.7062479383e+01 4.7062479383e+01 0.0000000000e+00 0.0000e+00 1.0000e+00
        1 -1    0    0  502    0 +0.0000000000e+00 -0.0000000000e+00 -9.6798175576e+02 9.6798175576e+02 0.0000000000e+00 0.0000e+00 -1.0000e+00
        6  2    1    2  502    0 +4.1373679691e+01 -5.2003661885e+01 -2.1152697158e+02 2.8187363128e+02 1.7404861989e+02 0.0000e+00 0.0000e+00
       24  2    3    3    0    0 -1.4779707247e+01 -5.7677991758e+01 -5.3185531509e+01 1.1370852632e+02 8.0967510246e+01 0.0000e+00 0.0000e+00
       -6  2    1    2    0  501 -4.1373679691e+01 +5.2003661885e+01 -7.0939230480e+02 7.3317060387e+02 1.7287431863e+02 0.0000e+00 0.0000e+00
      -24  2    5    5    0    0 -8.6881071270e+01 +5.7944397038e+01 -4.2473368286e+02 4.4479786578e+02 8.0873768049e+01 0.0000e+00 0.0000e+00
        5  1    3    3  502    0 +5.6153386938e+01 +5.6743298732e+00 -1.5834144007e+02 1.6816510496e+02 4.7000000000e+00 0.0000e+00 -1.0000e+00
      -13  1    4    4    0    0 +3.9910741844e+00 +2.0074084744e+01 -1.2305678740e+01 2.3881525929e+01 0.0000000000e+00 0.0000e+00 1.0000e+00
       14  1    4    4    0    0 -1.8770781431e+01 -7.7752076503e+01 -4.0879852769e+01 8.9827000386e+01 0.0000000000e+00 0.0000e+00 -1.0000e+00
       -5  1    5    5    0  501 +4.5507391579e+01 -5.9407351532e+00 -2.8465862195e+02 2.8837273809e+02 4.7000000000e+00 0.0000e+00 1.0000e+00
       13  1    6    6    0    0 -5.9212296046e+01 -8.0793101086e+00 -1.7009101235e+02 1.8028400855e+02 0.0000000000e+00 0.0000e+00 -1.0000e+00
      -14  1    6    6    0    0 -2.7668775224e+01 +6.6023707147e+01 -2.5464267050e+02 2.6451385723e+02 0.0000000000e+00 0.0000e+00 1.0000e+00
<mgrwt>
<rscale>  2 0.18575464E+03</rscale>
<asrwt>0</asrwt>
<pdfrwt beam="2">  1        1 0.14892027E+00 0.18575464E+03</pdfrwt>
<pdfrwt beam="1">  1       -1 0.72403817E-02 0.18575464E+03</pdfrwt>
<totfact> 0.16930535E+03</totfact>
</mgrwt>
</event>
<event>
13      3 +1.4674046e+01 5.09762800e+02 7.54677100e-03 1.04644400e-01
       21 -1    0    0  504  503 +0.0000000000e+00 +0.0000000000e+00 +7.1073387344e+02 7.1073387344e+02 0.0000000000e+00 0.0000e+00 -1.0000e+00
       -2 -1    0    0    0  501 -0.0000000000e+00 -0.0000000000e+00 -3.4125592497e+02 3.4125592497e+02 0.0000000000e+00 0.0000e+00 -1.0000e+00
       24  2    1    2    0    0 +8.6472991037e+01 +9.8567482704e+01 +2.2635126151e+02 2.7335077189e+02 7.9326061793e+01 0.0000e+00 0.0000e+00
       -6  2    1    2    0  503 +2.3212488608e+01 +4.8415571639e+00 +1.7549264201e+02 2.4707418904e+02 1.7229546478e+02 0.0000e+00 0.0000e+00
      -24  2    4    4    0    0 -3.7271337776e+01 +4.8639220135e+01 +8.2239168000e+01 1.2751320480e+02 7.5772094405e+01 0.0000e+00 0.0000e+00
        5  1    1    2  502    0 +1.6756620661e+01 -2.5530301775e+02 -1.1252036323e+02 2.7954129811e+02 4.7000000000e+00 0.0000e+00 -1.0000e+00
      -13  1    3    3    0    0 +1.5104714618e+01 +7.5614386376e+01 +1.3162605846e+02 1.5254870401e+02 0.0000000000e+00 0.0000e+00 1.0000e+00
       14  1    3    3    0    0 +7.1368276419e+01 +2.2953096328e+01 +9.4725203057e+01 1.2080206788e+02 0.0000000000e+00 0.0000e+00 -1.0000e+00
       -5  1    4    4    0  503 +6.0483826384e+01 -4.3797662972e+01 +9.3253474012e+01 1.1956098423e+02 4.7000000000e+00 0.0000e+00 1.0000e+00
       13  1    5    5    0    0 -4.2491003309e+01 -5.4939186337e+00 +4.0515317221e+01 5.8967443845e+01 0.0000000000e+00 0.0000e+00 -1.0000e+00
      -14  1    5    5    0    0 +5.2196655325e+00 +5.4133138769e+01 +4.1723850779e+01 6.8545760956e+01 0.0000000000e+00 0.0000e+00 1.0000e+00
       21  1    1    2  504  501 -7.2240197790e+01 +7.6238724068e+01 +1.1211091125e+02 1.5362241257e+02 0.0000000000e+00 0.0000e+00 -1.0000e+00
       -2  1    1    2    0  502 -5.4201902516e+01 +7.5655253817e+01 -3.1956503067e+01 9.8401126796e+01 0.0000000000e+00 0.0000e+00 -1.0000e+00
<mgrwt>
<rscale>  4 0.39239880E+03</rscale>
<asrwt>0</asrwt>
<pdfrwt beam="1">  1       21 0.10934367E+00 0.50976283E+03</pdfrwt>
<pdfrwt beam="2">  1       -2 0.52500912E-01 0.50976283E+03</pdfrwt>
<totfact> 0.16703908E+02</totfact>
</mgrwt>
</event>
<event>
14      3 +1.4674046e+01 1.95754800e+02 7.54677100e-03 1.15753700e-01
       21 -1    0    0  504  503 +0.0000000000e+00 +0.0000000000e+00 +5.4364688464e+02 5.4364688464e+02 0.0000000000e+00 0.0000e+00 -1.0000e+00
        1 -1    0    0  503    0 -0.0000000000e+00 -0.0000000000e+00 -1.4915370604e+02 1.4915370604e+02 0.0000000000e+00 0.0000e+00 1.0000e+00
        6  2    1    2  501    0 +3.2965536334e+00 -5.8743480016e+01 +9.7637415460e+01 2.1857514772e+02 1.8649495058e+02 0.0000e+00 0.0000e+00
       24  2    3    3    0    0 +2.9126976088e+01 +3.3265328229e+01 +8.3509011371e+01 1.2185631129e+02 7.6943114194e+01 0.0000e+00 0.0000e+00
       -6  2    1    2    0  502 +1.8863233864e+01 +5.7915738224e+01 +7.0976629295e+01 1.9162967873e+02 1.6725488794e+02 0.0000e+00 0.0000e+00
      -24  2    5    5    0    0 +2.5999053551e+01 -3.0652794480e+01 +3.4823624302e+01 9.5585758163e+01 7.9425485576e+01 0.0000e+00 0.0000e+00
        5  1    3    3  501    0 -2.5830422455e+01 -9.2008808244e+01 +1.4128404089e+01 9.6718836432e+01 4.7000000000e+00 0.0000e+00 -1.0000e+00
      -13  1    4    4    0    0 +3.5878778011e+01 +2.7634626765e+01 +8.1853124015e+00 4.6021284718e+01 0.0000000000e+00 0.0000e+00 1.0000e+00
       14  1    4    4    0    0 -6.7518019224e+00 +5.6307014639e+00 +7.5323698969e+01 7.5835026568e+01 0.0000000000e+00 0.0000e+00 -1.0000e+00
       -5  1    5    5    0  502 -7.1358196874e+00 +8.8568532704e+01 +3.6153004993e+01 9.6043920568e+01 4.7000000000e+00 0.0000e+00 1.0000e+00
       13  1    6    6    0    0 +1.7848107683e+01 -2.6414097966e+01 +6.0461797458e+01 6.8351214116e+01 0.0000000000e+00 0.0000e+00 -1.0000e+00
      -14  1    6    6    0    0 +8.1509458680e+00 -4.2386965143e+00 -2.5638173156e+01 2.7234544047e+01 0.0000000000e+00 0.0000e+00 1.0000e+00
       21  1    1    2  504  501 +6.4291035549e+00 -3.7755908419e+01 +2.3113617632e+02 2.3428780164e+02 0.0000000000e+00 0.0000e+00 -1.0000e+00
        1  1    1    2  502    0 -2.8588891052e+01 +3.8583650211e+01 -5.2570424739e+00 4.8307962602e+01 0.0000000000e+00 0.0000e+00 1.0000e+00
<mgrwt>
<rscale>  4 0.19102792E+03</rscale>
<asrwt>0</asrwt>
<pdfrwt beam="1">  1       21 0.83637981E-01 0.19575480E+03</pdfrwt>
<pdfrwt beam="2">  1        1 0.22946724E-01 0.19575480E+03</pdfrwt>
<totfact> 0.28621852E+03</totfact>
</mgrwt>
</event>
<event>
14      3 +1.4674046e+01 2.41319500e+02 7.54677100e-03 1.12004600e-01
        2 -1    0    0  501    0 -0.0000000000e+00 +0.0000000000e+00 +1.0527889522e+03 1.0527889522e+03 0.0000000000e+00 0.0000e+00 1.0000e+00
       21 -1    0    0  504  503 +0.0000000000e+00 -0.0000000000e+00 -3.6949761839e+02 3.6949761839e+02 0.0000000000e+00 0.0000e+00 1.0000e+00
        6  2    1    2  501    0 -1.9170854842e+02 +1.7351261034e+01 -1.9478298668e+02 3.1876503963e+02 1.6314871987e+02 0.0000e+00 0.0000e+00
       24  2    3    3    0    0 -1.1198779249e+02 -1.6480468262e+01 -1.8465675970e+02 2.3144599642e+02 8.1585898650e+01 0.0000e+00 0.0000e+00
       -6  2    1    2    0  503 +1.2253938147e+02 -4.6602861839e+01 -4.5597441994e+00 2.1685779916e+02 1.7268117166e+02 0.0000e+00 0.0000e+00
      -24  2    5    5    0    0 +7.5325419318e+00 -8.5351637210e+00 +3.7848851705e+01 8.8419869453e+01 7.9094560692e+01 0.0000e+00 0.0000e+00
        5  1    3    3  501    0 -7.9720755932e+01 +3.3831729296e+01 -1.0126226981e+01 8.7319043206e+01 4.7000000000e+00 0.0000e+00 -1.0000e+00
      -13  1    4    4    0    0 -5.5895492773e+01 +3.2122239581e+01 -9.8592135510e+01 1.1779878426e+02 0.0000000000e+00 0.0000e+00 1.0000e+00
       14  1    4    4    0    0 -5.6092299713e+01 -4.8602707843e+01 -8.6064624185e+01 1.1364721217e+02 0.0000000000e+00 0.0000e+00 -1.0000e+00
       -5  1    5    5    0  503 +1.1500683954e+02 -3.8067698118e+01 -4.2408595904e+01 1.2843792971e+02 4.7000000000e+00 0.0000e+00 1.0000e+00
       13  1    6    6    0    0 +6.3515122764e+00 -3.0794835079e+01 -1.2125057377e+01 3.3699860417e+01 0.0000000000e+00 0.0000e+00 -1.0000e+00
      -14  1    6    6    0    0 +1.1810296553e+00 +2.2259671358e+01 +4.9973909082e+01 5.4720009036e+01 0.0000000000e+00 0.0000e+00 1.0000e+00
       21  1    1    2  504  502 +1.8007255965e+01 -8.8860241012e+00 +2.5722882024e+02 2.5801141187e+02 0.0000000000e+00 0.0000e+00 1.0000e+00
        2  1    1    2  502    0 +5.1161910980e+01 +3.8137624906e+01 +6.2540524445e+02 6.2865231993e+02 0.0000000000e+00 0.0000e+00 1.0000e+00
<mgrwt>
<rscale>  4 0.23962000E+03</rscale>
<asrwt>0</asrwt>
<pdfrwt beam="2">  1       21 0.56845788E-01 0.24131953E+03</pdfrwt>
<pdfrwt beam="1">  1        2 0.16196753E+00 0.24131953E+03</pdfrwt>
<totfact> 0.87830130E+02</totfact>
</mgrwt>
</event>
<event>
14      3 +1.4674046e+01 2.47919700e+02 7.54677100e-03 1.11486300e-01
       21 -1    0    0  505  502 +0.0000000000e+00 +0.0000000000e+00 +1.0109006963e+03 1.0109006963e+03 0.0000000000e+00 0.0000e+00 -1.0000e+00
       21 -1    0    0  504  503 -0.0000000000e+00 -0.0000000000e+00 -1.2222836224e+02 1.2222836224e+02 0.0000000000e+00 0.0000e+00 1.0000e+00
       -6  2    1    2    0  502 +7.2999777963e+01 -1.6415278521e+02 +2.9540493169e+02 3.8566864136e+02 1.7088336017e+02 0.0000e+00 0.0000e+00
      -24  2    3    3    0    0 +5.0152835452e+01 -3.2483668276e+01 +6.8614756477e+01 1.2239195665e+02 8.1861533322e+01 0.0000e+00 0.0000e+00
        6  2    1    2  501    0 -4.1131404069e+01 +1.7269108483e+02 +6.0551223325e+02 6.5428598483e+02 1.7300601768e+02 0.0000e+00 0.0000e+00
       24  2    5    5    0    0 +5.9403616990e+00 +9.1253004966e+01 +1.4831565301e+02 1.8748976059e+02 6.9227729890e+01 0.0000e+00 0.0000e+00
        5  1    5    5  501    0 -4.7071765768e+01 +8.1438079862e+01 +4.5719658024e+02 4.6679622424e+02 4.7000000000e+00 0.0000e+00 -1.0000e+00
      -13  1    6    6    0    0 -3.0377508154e+01 +2.8576083934e+01 +6.3216061136e+01 7.5734113582e+01 0.0000000000e+00 0.0000e+00 1.0000e+00
       14  1    6    6    0    0 +3.6317869853e+01 +6.2676921032e+01 +8.5099591873e+01 1.1175564701e+02 0.0000000000e+00 0.0000e+00 -1.0000e+00
       -5  1    3    3    0  502 +2.2846942511e+01 -1.3166911694e+02 +2.2679017522e+02 2.6327668471e+02 4.7000000000e+00 0.0000e+00 1.0000e+00
       13  1    4    4    0    0 +2.1209746697e+01 -8.9774386887e+00 +8.0125264713e+01 8.3369693569e+01 0.0000000000e+00 0.0000e+00 -1.0000e+00
      -14  1    4    4    0    0 +2.8943088756e+01 -2.3506229587e+01 -1.1510508237e+01 3.9022263082e+01 0.0000000000e+00 0.0000e+00 1.0000e+00
       21  1    1    2  504  501 -4.3139888913e+01 +1.0073742133e+01 +2.4385683676e+01 5.0568684621e+01 0.0000000000e+00 0.0000e+00 1.0000e+00
       21  1    1    2  505  503 +1.1271515018e+01 -1.8612041747e+01 -3.6630514519e+01 4.2605747766e+01 0.0000000000e+00 0.0000e+00 -1.0000e+00
<mgrwt>
<rscale>  4 0.24754974E+03</rscale>
<asrwt>0</asrwt>
<pdfrwt beam="1">  1       21 0.15552318E+00 0.24791971E+03</pdfrwt>
<pdfrwt beam="2">  1       21 0.18804364E-01 0.24791971E+03</pdfrwt>
<totfact> 0.67527440E+03</totfact>
</mgrwt>
</event>
<event>
13      2 +1.4674046e+01 2.17842400e+02 7.54677100e-03 1.13550200e-01
        1 -1    0    0  501    0 -0.0000000000e+00 +0.0000000000e+00 +1.0159352311e+03 1.0159352311e+03 0.0000000000e+00 0.0000e+00 -1.0000e+00
       21 -1    0    0  502  503 +0.0000000000e+00 -0.0000000000e+00 -9.4660149973e+01 9.4660149973e+01 0.0000000000e+00 0.0000e+00 1.0000e+00
        6  2    1    2  501    0 -1.3160786561e+02 +1.5149656759e+01 +5.8269875361e+02 6.2231034027e+02 1.7373019243e+02 0.0000e+00 0.0000e+00
       24  2    3    3    0    0 -9.3340724651e+01 -5.5207646539e+01 +4.1276587416e+02 4.3439068264e+02 8.0989031252e+01 0.0000e+00 0.0000e+00
       -6  2    1    2    0  503 +1.2064880185e+02 -4.1268929978e+01 +3.8013899702e+02 4.3798819185e+02 1.7626327234e+02 0.0000e+00 0.0000e+00
      -24  2    5    5    0    0 +1.3782723783e+02 +1.1674804591e+01 +3.0605195105e+02 3.4520285856e+02 7.9778244318e+01 0.0000e+00 0.0000e+00
        5  1    3    3  501    0 -3.8267140956e+01 +7.0357303299e+01 +1.6993287946e+02 1.8791965763e+02 4.7000000000e+00 0.0000e+00 -1.0000e+00
      -13  1    4    4    0    0 -1.5594403846e+01 +8.5575339408e+00 +1.2633905044e+01 2.1818166172e+01 0.0000000000e+00 0.0000e+00 1.0000e+00
       14  1    4    4    0    0 -7.7746320805e+01 -6.3765180480e+01 +4.0013196911e+02 4.1257251647e+02 0.0000000000e+00 0.0000e+00 -1.0000e+00
       -5  1    5    5    0  503 -1.7178435984e+01 -5.2943734569e+01 +7.4087045968e+01 9.2785333287e+01 4.7000000000e+00 0.0000e+00 1.0000e+00
       13  1    6    6    0    0 +8.8243612617e+01 +4.3522550885e+01 +1.6166795716e+02 1.8925558374e+02 0.0000000000e+00 0.0000e+00 -1.0000e+00
      -14  1    6    6    0    0 +4.9583625215e+01 -3.1847746294e+01 +1.4438399389e+02 1.5594727482e+02 0.0000000000e+00 0.0000e+00 1.0000e+00
        1  1    1    2  502    0 +1.0959063758e+01 +2.6119273218e+01 -4.1562669537e+01 5.0296848917e+01 0.0000000000e+00 0.0000e+00 -1.0000e+00
<mgrwt>
<rscale>  3 0.21784241E+03</rscale>
<asrwt>0</asrwt>
<pdfrwt beam="2">  1       21 0.14563101E-01 0.21784241E+03</pdfrwt>
<pdfrwt beam="1">  1        1 0.15629772E+00 0.21784241E+03</pdfrwt>
<totfact> 0.71813515E+03</totfact>
</mgrwt>
</event>
<event>
12      2 +1.4674046e+01 1.92151100e+02 7.54677100e-03 1.15660400e-01
       21 -1    0    0  504  502 +0.0000000000e+00 +0.0000000000e+00 +5.8188646204e+01 5.8188646204e+01 0.0000000000e+00 0.0000e+00 -1.0000e+00
       21 -1    0    0  502  503 -0.0000000000e+00 -0.0000000000e+00 -7.8463610769e+02 7.8463610769e+02 0.0000000000e+00 0.0000e+00 1.0000e+00
       -6  2    1    2    0  503 +7.6260269504e+01 +3.2863285250e+01 -4.6449856849e+02 5.0262074171e+02 1.7312731052e+02 0.0000e+00 0.0000e+00
        6  2    1    2  501    0 -8.4601075516e+01 -1.3164023857e+01 -2.4990012421e+02 3.1565197003e+02 1.7278732768e+02 0.0000e+00 0.0000e+00
       24  2    4    4    0    0 -1.1048248459e+02 -5.2421120200e+01 -1.9654074737e+02 2.4437588677e+02 7.8338722308e+01 0.0000e+00 0.0000e+00
        5  1    4    4  501    0 +2.5881409077e+01 +3.9257096343e+01 -5.3359376837e+01 7.1276083264e+01 4.7000000000e+00 0.0000e+00 -1.0000e+00
      -13  1    5    5    0    0 -8.6445465756e+01 -2.3436674420e+01 -1.8407941276e+02 2.0471279017e+02 0.0000000000e+00 0.0000e+00 1.0000e+00
       14  1    5    5    0    0 -2.4037018836e+01 -2.8984445780e+01 -1.2461334615e+01 3.9663096602e+01 0.0000000000e+00 0.0000e+00 -1.0000e+00
       -5  1    3    3    0  503 -2.2515671638e+01 -1.7560015737e+01 -6.3696757266e+01 6.9961964725e+01 4.7000000000e+00 0.0000e+00 1.0000e+00
       13  1    3    3    0    0 +2.9095434653e+01 -3.9578726923e+01 -1.2028362578e+02 1.2992755895e+02 0.0000000000e+00 0.0000e+00 -1.0000e+00
      -14  1    3    3    0    0 +6.9680506489e+01 +9.0002027909e+01 -2.8051818544e+02 3.0273121804e+02 0.0000000000e+00 0.0000e+00 1.0000e+00
       21  1    1    2  504  501 +8.3408060116e+00 -1.9699261392e+01 -1.2048768790e+01 2.4552042149e+01 0.0000000000e+00 0.0000e+00 -1.0000e+00
<mgrwt>
<rscale>  3 0.19207444E+03</rscale>
<asrwt>0</asrwt>
<pdfrwt beam="1">  1       21 0.89520997E-02 0.19215105E+03</pdfrwt>
<pdfrwt beam="2">  1       21 0.12071324E+00 0.19215105E+03</pdfrwt>
<totfact> 0.51326393E+04</totfact>
</mgrwt>
</event>
<event>
12      1 +1.4674046e+01 2.96761700e+02 7.54677100e-03 1.08713100e-01
       21 -1    0    0  501  502 +0.0000000000e+00 +0.0000000000e+00 +2.5270604889e+02 2.5270604889e+02 0.0000000000e+00 0.0000e+00 1.0000e+00
       21 -1    0    0  502  503 -0.0000000000e+00 -0.0000000000e+00 -7.1430672570e+02 7.1430672570e+02 0.0000000000e+00 0.0000e+00 -1.0000e+00
       -6  2    1    2    0  503 -7.9361313291e+01 -2.2761773156e+02 -5.7832879831e+02 6.5002436776e+02 1.7308792550e+02 0.0000e+00 0.0000e+00
      -24  2    3    3    0    0 +1.6531387627e+00 -1.1828642766e+02 -1.8543908046e+02 2.3421059231e+02 8.0452079861e+01 0.0000e+00 0.0000e+00
        6  2    1    2  501    0 +7.9361313291e+01 +2.2761773156e+02 +1.1672812150e+02 3.1698840683e+02 1.6955278218e+02 0.0000e+00 0.0000e+00
       24  2    5    5    0    0 +1.1949737639e+02 +1.6385986298e+02 +9.9745582609e+01 2.3961615085e+02 7.9605532727e+01 0.0000e+00 0.0000e+00
        5  1    5    5  501    0 -4.0136063096e+01 +6.3757868581e+01 +1.6982538895e+01 7.7372255972e+01 4.7000000000e+00 0.0000e+00 -1.0000e+00
      -13  1    6    6    0    0 +4.7945588393e+01 +8.9675039827e+01 +9.0511876705e+01 1.3613519765e+02 0.0000000000e+00 0.0000e+00 1.0000e+00
       14  1    6    6    0    0 +7.1551787994e+01 +7.4184823154e+01 +9.2337059042e+00 1.0348095321e+02 0.0000000000e+00 0.0000e+00 -1.0000e+00
       -5  1    3    3    0  503 -8.1014452054e+01 -1.0933130390e+02 -3.9288971785e+02 4.1581377545e+02 4.7000000000e+00 0.0000e+00 1.0000e+00
       13  1    4    4    0    0 +8.7955469206e+00 -4.7394039030e+01 -1.4384595931e+02 1.5170766821e+02 0.0000000000e+00 0.0000e+00 -1.0000e+00
      -14  1    4    4    0    0 -7.1424081579e+00 -7.0892388629e+01 -4.1593121146e+01 8.2502924109e+01 0.0000000000e+00 0.0000e+00 1.0000e+00
<mgrwt>
<rscale>  2 0.29624835E+03</rscale>
<asrwt>0</asrwt>
<pdfrwt beam="1">  1       21 0.38877853E-01 0.29676165E+03</pdfrwt>
<pdfrwt beam="2">  1       21 0.10989334E+00 0.29676165E+03</pdfrwt>
<totfact> 0.38915208E+03</totfact>
</mgrwt>
</event>
<event>
14      3 +1.4674046e+01 2.46566800e+02 7.54677100e-03 1.11594600e-01
       21 -1    0    0  505  502 +0.0000000000e+00 +0.0000000000e+00 +2.6857771157e+02 2.6857771157e+02 0.0000000000e+00 0.0000e+00 1.0000e+00
       21 -1    0    0  504  503 -0.0000000000e+00 -0.0000000000e+00 -4.1828190920e+02 4.1828190920e+02 0.0000000000e+00 0.0000e+00 1.0000e+00
        6  2    1    2  501    0 -1.2316524127e+02 +1.1332732001e+02 -1.3211481496e+02 2.7246510357e+02 1.6961765891e+02 0.0000e+00 0.0000e+00
       24  2    3    3    0    0 -4.4516295201e+01 +1.2845323050e+02 -8.5025643088e+01 1.7943860200e+02 8.0541411350e+01 0.0000e+00 0.0000e+00
       -6  2    1    2    0  502 +1.1368428788e+02 -1.3777560035e+02 +1.1103530320e+02 2.7271963053e+02 1.7361141943e+02 0.0000e+00 0.0000e+00
      -24  2    5    5    0    0 +4.6827664573e+01 -2.4384270072e+01 +1.0232060679e+02 1.4071418445e+02 8.0892226666e+01 0.0000e+00 0.0000e+00
        5  1    3    3  501    0 -7.8648946073e+01 -1.5125910485e+01 -4.7089171871e+01 9.3026501568e+01 4.7000000000e+00 0.0000e+00 -1.0000e+00
      -13  1    4    4    0    0 -5.8766141414e+01 +5.4539475449e+01 -5.9903904114e+01 1.0008242347e+02 0.0000000000e+00 0.0000e+00 1.0000e+00
       14  1    4    4    0    0 +1.4249846213e+01 +7.3913755051e+01 -2.5121738974e+01 7.9356178536e+01 0.0000000000e+00 0.0000e+00 -1.0000e+00
       -5  1    5    5    0  502 +6.6856623307e+01 -1.1339133028e+02 +8.7146964119e+00 1.3200544609e+02 4.7000000000e+00 0.0000e+00 1.0000e+00
       13  1    6    6    0    0 -9.3882927287e+00 -3.4084375075e+01 +2.0181670614e+01 4.0708530966e+01 0.0000000000e+00 0.0000e+00 -1.0000e+00
      -14  1    6    6    0    0 +5.6215957301e+01 +9.7001050037e+00 +8.2138936174e+01 1.0000565348e+02 0.0000000000e+00 0.0000e+00 1.0000e+00
       21  1    1    2  504  501 -1.6931041465e+01 +1.5733614174e+01 -9.6286351069e+01 9.9021554129e+01 0.0000000000e+00 0.0000e+00 1.0000e+00
       21  1    1    2  505  503 +2.6411994860e+01 +8.7146661633e+00 -3.2338334798e+01 4.2653332535e+01 0.0000000000e+00 0.0000e+00 -1.0000e+00
<mgrwt>
<rscale>  4 0.24586492E+03</rscale>
<asrwt>0</asrwt>
<pdfrwt beam="1">  1       21 0.41319648E-01 0.24656680E+03</pdfrwt>
<pdfrwt beam="2">  1       21 0.64351063E-01 0.24656680E+03</pdfrwt>
<totfact> 0.12160123E+04</totfact>
</mgrwt>
</event>
<event>
12      1 +1.4674046e+01 1.76903000e+02 7.54677100e-03 1.17083400e-01
        1 -1    0    0  502    0 +0.0000000000e+00 +0.0000000000e+00 +4.3786542140e+02 4.3786542140e+02 0.0000000000e+00 0.0000e+00 -1.0000e+00
       -1 -1    0    0    0  501 -0.0000000000e+00 -0.0000000000e+00 -1.0719969763e+02 1.0719969763e+02 0.0000000000e+00 0.0000e+00 1.0000e+00
        6  2    1    2  502    0 +5.2529579819e+00 -3.8879820731e+01 +3.2235171408e+02 3.6745923137e+02 1.7197797858e+02 0.0000e+00 0.0000e+00
       24  2    3    3    0    0 +2.5644406342e+01 +1.8345022301e+01 +2.8068172420e+02 2.9364207969e+02 8.0307317471e+01 0.0000e+00 0.0000e+00
       -6  2    1    2    0  501 -5.2529579819e+00 +3.8879820731e+01 +8.3140096857e+00 1.7760588767e+02 1.7301876935e+02 0.0000e+00 0.0000e+00
      -24  2    5    5    0    0 +2.5275404336e-01 -9.5898117603e+00 -4.1166965115e+01 1.0796340777e+02 9.9344602402e+01 0.0000e+00 0.0000e+00
        5  1    3    3  502    0 -2.0391448360e+01 -5.7224843032e+01 +4.1669989879e+01 7.3817151684e+01 4.7000000000e+00 0.0000e+00 -1.0000e+00
      -13  1    4    4    0    0 +1.3048680753e+01 -2.9466734807e+01 +6.7453053162e+01 7.4756076078e+01 0.0000000000e+00 0.0000e+00 1.0000e+00
       14  1    4    4    0    0 +1.2595725589e+01 +4.7811757108e+01 +2.1322867104e+02 2.1888600361e+02 0.0000000000e+00 0.0000e+00 -1.0000e+00
       -5  1    5    5    0  501 -5.5057120253e+00 +4.8469632491e+01 +4.9480974801e+01 6.9642479896e+01 4.7000000000e+00 0.0000e+00 1.0000e+00
       13  1    6    6    0    0 -1.9180668849e+01 -4.8596795818e+01 -3.7337695185e+01 6.4215653099e+01 0.0000000000e+00 0.0000e+00 -1.0000e+00
      -14  1    6    6    0    0 +1.9433422893e+01 +3.9006984057e+01 -3.8292699302e+00 4.3747754671e+01 0.0000000000e+00 0.0000e+00 1.0000e+00
<mgrwt>
<rscale>  2 0.17690302E+03</rscale>
<asrwt>0</asrwt>
<pdfrwt beam="1">  1        1 0.67363910E-01 0.17690302E+03</pdfrwt>
<pdfrwt beam="2">  1       -1 0.16492261E-01 0.17690302E+03</pdfrwt>
<totfact> 0.14754858E+03</totfact>
</mgrwt>
</event>
<event>
12      1 +1.4674046e+01 2.02781000e+02 7.54677100e-03 1.14829200e-01
       21 -1    0    0  501  502 +0.0000000000e+00 +0.0000000000e+00 +3.7806002711e+02 3.7806002711e+02 0.0000000000e+00 0.0000e+00 -1.0000e+00
       21 -1    0    0  502  503 -0.0000000000e+00 -0.0000000000e+00 -1.6801430858e+02 1.6801430858e+02 0.0000000000e+00 0.0000e+00 -1.0000e+00
        6  2    1    2  501    0 -1.8209320951e+01 -1.0361525585e+02 +2.6949167864e+02 3.3475948282e+02 1.6843528687e+02 0.0000e+00 0.0000e+00
       24  2    3    3    0    0 +2.0708037802e+01 -9.9406435673e-01 +1.6049875556e+02 1.8001059902e+02 7.8829906939e+01 0.0000e+00 0.0000e+00
       -6  2    1    2    0  503 +1.8209320951e+01 +1.0361525585e+02 -5.9445960105e+01 2.1131485287e+02 1.7335640818e+02 0.0000e+00 0.0000e+00
      -24  2    5    5    0    0 -4.4794798392e+01 +7.5468029395e+01 -7.2840818750e+01 1.4086417758e+02 8.2673661012e+01 0.0000e+00 0.0000e+00
        5  1    3    3  501    0 -3.8917358753e+01 -1.0262119149e+02 +1.0899292308e+02 1.5474888380e+02 4.7000000000e+00 0.0000e+00 -1.0000e+00
      -13  1    4    4    0    0 +2.1321243503e+01 -2.6291509019e+01 +2.4775083754e+01 4.1948106585e+01 0.0000000000e+00 0.0000e+00 1.0000e+00
       14  1    4    4    0    0 -6.1320570127e-01 +2.5297444662e+01 +1.3572367181e+02 1.3806249243e+02 0.0000000000e+00 0.0000e+00 -1.0000e+00
       -5  1    5    5    0  503 +6.3004119343e+01 +2.8147226454e+01 +1.3394858645e+01 7.0450675294e+01 4.7000000000e+00 0.0000e+00 1.0000e+00
       13  1    6    6    0    0 +1.0954668356e+01 +6.1700748622e+01 -3.1729409764e+01 7.0240604947e+01 0.0000000000e+00 0.0000e+00 -1.0000e+00
      -14  1    6    6    0    0 -5.5749466748e+01 +1.3767280773e+01 -4.1111408986e+01 7.0623572632e+01 0.0000000000e+00 0.0000e+00 1.0000e+00
<mgrwt>
<rscale>  2 0.20172515E+03</rscale>
<asrwt>0</asrwt>
<pdfrwt beam="1">  1       21 0.58163081E-01 0.20278103E+03</pdfrwt>
<pdfrwt beam="2">  1       21 0.25848355E-01 0.20278103E+03</pdfrwt>
<totfact> 0.39150470E+04</totfact>
</mgrwt>
</event>
<event>
12      1 +1.4674046e+01 2.52668300e+02 7.54677100e-03 1.11186000e-01
       21 -1    0    0  501  502 +0.0000000000e+00 +0.0000000000e+00 +6.8444312945e+02 6.8444312945e+02 0.0000000000e+00 0.0000e+00 -1.0000e+00
       21 -1    0    0  502  503 -0.0000000000e+00 -0.0000000000e+00 -1.2463095232e+02 1.2463095232e+02 0.0000000000e+00 0.0000e+00 1.0000e+00
       -6  2    1    2    0  503 -1.7589145831e+02 -4.8746073989e+01 +7.5855334426e+01 2.6380924353e+02 1.7472063524e+02 0.0000e+00 0.0000e+00
      -24  2    3    3    0    0 -8.1453449592e+01 -2.5288587023e+01 -2.1852339088e+01 1.2583217787e+02 8.9900140048e+01 0.0000e+00 0.0000e+00
        6  2    1    2  501    0 +1.7589145831e+02 +4.8746073989e+01 +4.8395684270e+02 5.4526483823e+02 1.7258485850e+02 0.0000e+00 0.0000e+00
       24  2    5    5    0    0 +1.7901079687e+02 +1.9656595531e+01 +3.0943754528e+02 3.6824788085e+02 8.6160664913e+01 0.0000e+00 0.0000e+00
        5  1    5    5  501    0 -3.1193385587e+00 +2.9089478459e+01 +1.7451929742e+02 1.7701695739e+02 4.7000000000e+00 0.0000e+00 -1.0000e+00
      -13  1    6    6    0    0 +1.1461342012e+02 +4.7827106970e+01 +1.5538509463e+02 1.9891756048e+02 0.0000000000e+00 0.0000e+00 1.0000e+00
       14  1    6    6    0    0 +6.4397376751e+01 -2.8170511439e+01 +1.5405245065e+02 1.6933032037e+02 0.0000000000e+00 0.0000e+00 -1.0000e+00
       -5  1    3    3    0  503 -9.4438008715e+01 -2.3457486967e+01 +9.7707673514e+01 1.3797706566e+02 4.7000000000e+00 0.0000e+00 1.0000e+00
       13  1    4    4    0    0 +5.8948656662e-01 -1.9514775116e+01 +2.4575546171e+01 3.1386803148e+01 0.0000000000e+00 0.0000e+00 -1.0000e+00
      -14  1    4    4    0    0 -8.2042936159e+01 -5.7738119071e+00 -4.6427885259e+01 9.4445374726e+01 0.0000000000e+00 0.0000e+00 1.0000e+00
<mgrwt>
<rscale>  2 0.25229948E+03</rscale>
<asrwt>0</asrwt>
<pdfrwt beam="1">  1       21 0.10529894E+00 0.25266833E+03</pdfrwt>
<pdfrwt beam="2">  1       21 0.19173993E-01 0.25266833E+03</pdfrwt>
<totfact> 0.17502091E+04</totfact>
</mgrwt>
</event>
<event>
14      3 +1.4674046e+01 2.70946800e+02 7.54677100e-03 1.10085700e-01
       21 -1    0    0  502  503 +0.0000000000e+00 +0.0000000000e+00 +1.7106392302e+02 1.7106392302e+02 0.0000000000e+00 0.0000e+00 -1.0000e+00
        2 -1    0    0  501    0 -0.0000000000e+00 -0.0000000000e+00 -3.2808266796e+03 3.2808266796e+03 0.0000000000e+00 0.0000e+00 -1.0000e+00
        6  2    1    2  501    0 -1.6947539807e+02 -1.5219604769e+02 -9.8141289488e+01 3.0362644418e+02 1.7513354168e+02 0.0000e+00 0.0000e+00
       24  2    3    3    0    0 -1.8620041188e+02 -1.1550153440e+02 -1.1456887400e+02 2.5982953875e+02 7.9838364740e+01 0.0000e+00 0.0000e+00
       -6  2    1    2    0  504 +1.1737812856e+02 +1.3728874317e+02 -1.9768131532e+02 3.1926298255e+02 1.7385374755e+02 0.0000e+00 0.0000e+00
      -24  2    5    5    0    0 +2.8911514905e+01 +6.2706824290e+01 -1.6990952577e+02 2.0017408026e+02 8.0202206657e+01 0.0000e+00 0.0000e+00
        5  1    3    3  501    0 +1.6725013812e+01 -3.6694513291e+01 +1.6427584513e+01 4.3796905434e+01 4.7000000000e+00 0.0000e+00 -1.0000e+00
      -13  1    4    4    0    0 -4.6216329083e+01 -5.7798944985e+01 -7.0319230756e+01 1.0208555887e+02 0.0000000000e+00 0.0000e+00 1.0000e+00
       14  1    4    4    0    0 -1.3998408280e+02 -5.7702589410e+01 -4.4249643245e+01 1.5774397988e+02 0.0000000000e+00 0.0000e+00 -1.0000e+00
       -5  1    5    5    0  504 +8.8466613654e+01 +7.4581918880e+01 -2.7771789549e+01 1.1908890230e+02 4.7000000000e+00 0.0000e+00 1.0000e+00
       13  1    6    6    0    0 -6.1434237647e+00 +6.6614244243e+01 -8.4550687952e+01 1.0781473937e+02 0.0000000000e+00 0.0000e+00 -1.0000e+00
      -14  1    6    6    0    0 +3.5054938670e+01 -3.9074199538e+00 -8.5358837819e+01 9.2359340890e+01 0.0000000000e+00 0.0000e+00 1.0000e+00
       21  1    1    2  504  503 +2.2900877873e+01 +4.1740553683e+01 -6.9322991602e+01 8.4097569488e+01 0.0000000000e+00 0.0000e+00 1.0000e+00
        2  1    1    2  502    0 +2.9196391634e+01 -2.6833249166e+01 -2.7446171602e+03 2.7449036064e+03 0.0000000000e+00 0.0000e+00 -1.0000e+00
<mgrwt>
<rscale>  4 0.27074019E+03</rscale>
<asrwt>0</asrwt>
<pdfrwt beam="1">  1       21 0.26317531E-01 0.27094679E+03</pdfrwt>
<pdfrwt beam="2">  1        2 0.50474249E+00 0.27094679E+03</pdfrwt>
<totfact> 0.23914799E+02</totfact>
</mgrwt>
</event>
<event>
14      3 +1.4674046e+01 6.78972900e+02 7.54677100e-03 9.75388300e-02
        2 -1    0    0  501    0 -0.0000000000e+00 +0.0000000000e+00 +2.8011563009e+03 2.8011563009e+03 0.0000000000e+00 0.0000e+00 1.0000e+00
       21 -1    0    0  504  503 +0.0000000000e+00 -0.0000000000e+00 -1.4266243540e+02 1.4266243540e+02 0.0000000000e+00 0.0000e+00 -1.0000e+00
        6  2    1    2  501    0 -1.3863145246e+02 +2.4153863071e+01 +5.3845160954e+02 5.8279798907e+02 1.7297766195e+02 0.0000e+00 0.0000e+00
       24  2    3    3    0    0 -4.4868628163e+01 -4.0911586947e+01 +3.3113356047e+02 3.4609597497e+02 8.0287217442e+01 0.0000e+00 0.0000e+00
       -6  2    1    2    0  503 -3.9912997389e+02 +1.4442345952e+02 +1.0322791417e+03 1.1284002236e+03 1.6590348591e+02 0.0000e+00 0.0000e+00
      -24  2    5    5    0    0 -3.8254686803e+02 +1.6677389173e+02 +9.9271721431e+02 1.0798021031e+03 7.9558010980e+01 0.0000e+00 0.0000e+00
        5  1    3    3  501    0 -9.3762824301e+01 +6.5065450017e+01 +2.0731804907e+02 2.3670201410e+02 4.7000000000e+00 0.0000e+00 -1.0000e+00
      -13  1    4    4    0    0 +7.0456315640e+00 +1.7939670448e+01 +1.0443250188e+02 1.0619613999e+02 0.0000000000e+00 0.0000e+00 1.0000e+00
       14  1    4    4    0    0 -5.1914259727e+01 -5.8851257394e+01 +2.2670105859e+02 2.3989983498e+02 0.0000000000e+00 0.0000e+00 -1.0000e+00
       -5  1    5    5    0  503 -1.6583105855e+01 -2.2350432220e+01 +3.9561927363e+01 4.8598120508e+01 4.7000000000e+00 0.0000e+00 1.0000e+00
       13  1    6    6    0    0 -7.8782661419e+01 +7.1529704306e+01 +2.5780556043e+02 2.7890305363e+02 0.0000000000e+00 0.0000e+00 -1.0000e+00
      -14  1    6    6    0    0 -3.0376420662e+02 +9.5244187429e+01 +7.3491165388e+02 8.0089904949e+02 0.0000000000e+00 0.0000e+00 1.0000e+00
       21  1    1    2  504  502 +1.6098313662e+02 -8.5917794718e+01 +2.4236908888e+02 3.0338129964e+02 0.0000000000e+00 0.0000e+00 -1.0000e+00
        2  1    1    2  502    0 +3.7677828974e+02 -8.2659527868e+01 +8.4539402544e+02 9.2923922400e+02 0.0000000000e+00 0.0000e+00 1.0000e+00
<mgrwt>
<rscale>  4 0.67897292E+03</rscale>
<asrwt>0</asrwt>
<pdfrwt beam="2">  1       21 0.21948069E-01 0.67897292E+03</pdfrwt>
<pdfrwt beam="1">  1        2 0.43094708E+00 0.67897292E+03</pdfrwt>
<totfact> 0.56826514E+02</totfact>
</mgrwt>
</event>
<event>
14      3 +1.4674046e+01 1.82414400e+02 7.54677100e-03 1.16641900e-01
       21 -1    0    0  505  502 +0.0000000000e+00 +0.0000000000e+00 +9.4386369684e+02 9.4386369684e+02 0.0000000000e+00 0.0000e+00 -1.0000e+00
       21 -1    0    0  501  503 -0.0000000000e+00 -0.0000000000e+00 -1.3694430065e+02 1.3694430065e+02 0.0000000000e+00 0.0000e+00 -1.0000e+00
        6  2    1    2  501    0 +2.6752419581e+01 +1.4025026970e+02 +3.3056315663e+02 3.9775378086e+02 1.6896816141e+02 0.0000e+00 0.0000e+00
       24  2    3    3    0    0 +6.5831215841e+01 +8.0497211289e+01 +1.3272795789e+02 1.8737689010e+02 8.1730276734e+01 0.0000e+00 0.0000e+00
       -6  2    1    2    0  502 -3.3621622760e+01 -6.7389114780e+00 +4.9686985359e+02 5.2726132398e+02 1.7305786870e+02 0.0000e+00 0.0000e+00
      -24  2    5    5    0    0 -5.9713167055e+01 -2.9018888123e+01 +4.7217136374e+02 4.8472579244e+02 8.7209741040e+01 0.0000e+00 0.0000e+00
        5  1    3    3  501    0 -3.9078796259e+01 +5.9753058413e+01 +1.9783519874e+02 2.1037689076e+02 4.7000000000e+00 0.0000e+00 -1.0000e+00
      -13  1    4    4    0    0 +6.2663006290e+01 +1.4939818337e+01 +8.2816677669e+01 1.0492117341e+02 0.0000000000e+00 0.0000e+00 1.0000e+00
       14  1    4    4    0    0 +3.1682095504e+00 +6.5557392952e+01 +4.9911280217e+01 8.2455716692e+01 0.0000000000e+00 0.0000e+00 -1.0000e+00
       -5  1    5    5    0  502 +2.6091544295e+01 +2.2279976645e+01 +2.4698489853e+01 4.2535531548e+01 4.7000000000e+00 0.0000e+00 1.0000e+00
       13  1    6    6    0    0 -1.2627412743e+01 +2.7847881433e+01 +7.9572421601e+01 8.5245095650e+01 0.0000000000e+00 0.0000e+00 -1.0000e+00
      -14  1    6    6    0    0 -4.7085754312e+01 -5.6866769556e+01 +3.9259894214e+02 3.9948069679e+02 0.0000000000e+00 0.0000e+00 1.0000e+00
       21  1    1    2  504  503 -2.0704691231e+01 -2.2219916072e+01 -2.7434820378e+01 4.0927720171e+01 0.0000000000e+00 0.0000e+00 -1.0000e+00
       21  1    1    2  505  504 +2.7573894410e+01 -1.1129144215e+02 +6.9212063586e+00 1.1486517247e+02 0.0000000000e+00 0.0000e+00 -1.0000e+00
<mgrwt>
<rscale>  4 0.18143778E+03</rscale>
<asrwt>0</asrwt>
<pdfrwt beam="1">  1       21 0.14520980E+00 0.18241441E+03</pdfrwt>
<pdfrwt beam="2">  1       21 0.21068355E-01 0.18241441E+03</pdfrwt>
<totfact> 0.68711457E+03</totfact>
</mgrwt>
</event>
<event>
13      2 +1.4674046e+01 1.78835500e+02 7.54677100e-03 1.16899600e-01
       21 -1    0    0  504  502 +0.0000000000e+00 +0.0000000000e+00 +7.6025946975e+01 7.6025946975e+01 0.0000000000e+00 0.0000e+00 -1.0000e+00
       21 -1    0    0  501  503 -0.0000000000e+00 -0.0000000000e+00 -6.8893984057e+02 6.8893984057e+02 0.0000000000e+00 0.0000e+00 1.0000e+00
        6  2    1    2  501    0 +1.7807980456e+01 -3.9471762496e+01 -3.0084007842e+02 3.4985981420e+02 1.7326855631e+02 0.0000e+00 0.0000e+00
       24  2    3    3    0    0 +2.7736741167e+01 -4.2946749124e+01 -3.1623098283e+02 3.3063416050e+02 8.1872849681e+01 0.0000e+00 0.0000e+00
       -6  2    1    2    0  502 +2.2588300870e+01 +4.3738206923e+01 -1.1505607567e+02 2.1394421810e+02 1.7352511585e+02 0.0000e+00 0.0000e+00
      -24  2    5    5    0    0 +1.7798432836e+01 -4.1541850441e+01 -5.2757032220e+01 1.0811940138e+02 8.2849206128e+01 0.0000e+00 0.0000e+00
        5  1    3    3  501    0 -9.9287607112e+00 +3.4749866278e+00 +1.5390904416e+01 1.9225653696e+01 4.7000000000e+00 0.0000e+00 -1.0000e+00
      -13  1    4    4    0    0 +1.0888674831e+01 -6.5135876690e+01 -1.8379513466e+02 1.9529950639e+02 0.0000000000e+00 0.0000e+00 1.0000e+00
       14  1    4    4    0    0 +1.6848066336e+01 +2.2189127566e+01 -1.3243584818e+02 1.3533465411e+02 0.0000000000e+00 0.0000e+00 -1.0000e+00
       -5  1    5    5    0  502 +4.7898680341e+00 +8.5280057364e+01 -6.2299043446e+01 1.0582481672e+02 4.7000000000e+00 0.0000e+00 1.0000e+00
       13  1    6    6    0    0 +3.6229375711e+01 -2.5490541557e+01 +5.7906548355e+00 4.4675127943e+01 0.0000000000e+00 0.0000e+00 -1.0000e+00
      -14  1    6    6    0    0 -1.8430942875e+01 -1.6051308884e+01 -5.8547687056e+01 6.3444273435e+01 0.0000000000e+00 0.0000e+00 1.0000e+00
       21  1    1    2  504  503 -4.0396281325e+01 -4.2664444263e+00 -1.9701773951e+02 2.0116175525e+02 0.0000000000e+00 0.0000e+00 1.0000e+00
<mgrwt>
<rscale>  3 0.17877320E+03</rscale>
<asrwt>0</asrwt>
<pdfrwt beam="1">  1       21 0.11696300E-01 0.17883547E+03</pdfrwt>
<pdfrwt beam="2">  1       21 0.10599074E+00 0.17883547E+03</pdfrwt>
<totfact> 0.44200154E+04</totfact>
</mgrwt>
</event>
<event>
13      2 +1.4674046e+01 2.02518700e+02 7.54677100e-03 1.14780300e-01
       21 -1    0    0  501  502 +0.0000000000e+00 +0.0000000000e+00 +3.3885142179e+02 3.3885142179e+02 0.0000000000e+00 0.0000e+00 1.0000e+00
       21 -1    0    0  504  503 -0.0000000000e+00 -0.0000000000e+00 -2.5533994253e+02 2.5533994253e+02 0.0000000000e+00 0.0000e+00 -1.0000e+00
        6  2    1    2  501    0 -8.3945384011e+01 -9.4661728190e+01 +1.9846817929e+02 2.9250684391e+02 1.7367488381e+02 0.0000e+00 0.0000e+00
       24  2    3    3    0    0 -2.8091165427e+01 -1.0309979354e+00 +1.5244191999e+02 1.7407157076e+02 7.9197198465e+01 0.0000e+00 0.0000e+00
       -6  2    1    2    0  503 +4.3184145501e+01 +5.5983050860e+00 -9.4458905098e+01 2.0161488717e+02 1.7271324944e+02 0.0000e+00 0.0000e+00
      -24  2    5    5    0    0 +1.0131410708e+01 +1.5322264931e+01 -1.2847344999e+02 1.5297212886e+02 8.0979179854e+01 0.0000e+00 0.0000e+00
        5  1    3    3  501    0 -5.5854218583e+01 -9.3630730254e+01 +4.6026259298e+01 1.1843527315e+02 4.7000000000e+00 0.0000e+00 -1.0000e+00
      -13  1    4    4    0    0 +3.2378192200e+00 -3.5224812503e+01 +4.6513064296e+01 5.8435742824e+01 0.0000000000e+00 0.0000e+00 1.0000e+00
       14  1    4    4    0    0 -3.1328984647e+01 +3.4193814568e+01 +1.0592885570e+02 1.1563582794e+02 0.0000000000e+00 0.0000e+00 -1.0000e+00
       -5  1    5    5    0  503 +3.3052734793e+01 -9.7239598449e+00 +3.4014544888e+01 4.8642758313e+01 4.7000000000e+00 0.0000e+00 1.0000e+00
       13  1    6    6    0    0 -1.4136528903e+01 +4.0056726503e+01 -4.1654691558e+01 5.9493664506e+01 0.0000000000e+00 0.0000e+00 -1.0000e+00
      -14  1    6    6    0    0 +2.4267939611e+01 -2.4734461572e+01 -8.6818758428e+01 9.3478464350e+01 0.0000000000e+00 0.0000e+00 1.0000e+00
       21  1    1    2  504  502 +4.0761238510e+01 +8.9063423104e+01 -2.0497794936e+01 1.0006963324e+02 0.0000000000e+00 0.0000e+00 1.0000e+00
<mgrwt>
<rscale>  3 0.20231240E+03</rscale>
<asrwt>0</asrwt>
<pdfrwt beam="1">  1       21 0.52130988E-01 0.20251873E+03</pdfrwt>
<pdfrwt beam="2">  1       21 0.39283068E-01 0.20251873E+03</pdfrwt>
<totfact> 0.21688311E+04</totfact>
</mgrwt>
</event>
<event>
13      2 +1.4674046e+01 2.52868100e+02 7.54677100e-03 1.11150600e-01
        2 -1    0    0  501    0 -0.0000000000e+00 +0.0000000000e+00 +3.1524393960e+02 3.1524393960e+02 0.0000000000e+00 0.0000e+00 1.0000e+00
       21 -1    0    0  502  503 +0.0000000000e+00 -0.0000000000e+00 -4.6209630119e+02 4.6209630119e+02 0.0000000000e+00 0.0000e+00 1.0000e+00
        6  2    1    2  501    0 -7.7633251913e+01 -1.7558517699e+02 +1.9960859295e+02 3.2630574683e+02 1.7255368396e+02 0.0000e+00 0.0000e+00
       24  2    3    3    0    0 -6.0234914801e+01 -6.3599968074e+01 +1.7346027009e+02 2.0990465603e+02 7.9361819675e+01 0.0000e+00 0.0000e+00
       -6  2    1    2    0  503 +6.6811501185e+01 +1.2726163525e+02 -3.2926515017e+02 3.9861340409e+02 1.7267833191e+02 0.0000e+00 0.0000e+00
      -24  2    5    5    0    0 +8.9894145370e+01 +1.2866350626e+02 -1.7327446024e+02 2.4084788489e+02 5.7865446243e+01 0.0000e+00 0.0000e+00
        5  1    3    3  501    0 -1.7398337112e+01 -1.1198520892e+02 +2.6148322862e+01 1.1640109080e+02 4.7000000000e+00 0.0000e+00 -1.0000e+00
      -13  1    4    4    0    0 -5.4957307774e+01 -1.5992382138e+00 +9.5026884251e+01 1.0978602812e+02 0.0000000000e+00 0.0000e+00 1.0000e+00
       14  1    4    4    0    0 -5.2776070265e+00 -6.2000729860e+01 +7.8433385838e+01 1.0011862790e+02 0.0000000000e+00 0.0000e+00 -1.0000e+00
       -5  1    5    5    0  503 -2.3082644185e+01 -1.4018710114e+00 -1.5599068993e+02 1.5776551920e+02 4.7000000000e+00 0.0000e+00 1.0000e+00
       13  1    6    6    0    0 +5.3836469027e+00 +4.2539677499e+01 -2.4829631709e+01 4.9549151623e+01 0.0000000000e+00 0.0000e+00 -1.0000e+00
      -14  1    6    6    0    0 +8.4510498467e+01 +8.6123828763e+01 -1.4844482853e+02 1.9129873327e+02 0.0000000000e+00 0.0000e+00 1.0000e+00
        2  1    1    2  502    0 +1.0821750728e+01 +4.8323541742e+01 -1.7195804371e+01 5.2421089871e+01 0.0000000000e+00 0.0000e+00 1.0000e+00
<mgrwt>
<rscale>  3 0.25286806E+03</rscale>
<asrwt>0</asrwt>
<pdfrwt beam="2">  1       21 0.71091739E-01 0.25286806E+03</pdfrwt>
<pdfrwt beam="1">  1        2 0.48499068E-01 0.25286806E+03</pdfrwt>
<totfact> 0.22514458E+03</totfact>
</mgrwt>
</event>
<event>
13      2 +1.4674046e+01 1.91160700e+02 7.54677100e-03 1.15843300e-01
       21 -1    0    0  503  502 +0.0000000000e+00 +0.0000000000e+00 +3.2745173638e+01 3.2745173638e+01 0.0000000000e+00 0.0000e+00 1.0000e+00
       21 -1    0    0  504  503 -0.0000000000e+00 -0.0000000000e+00 -2.0305993136e+03 2.0305993136e+03 0.0000000000e+00 0.0000e+00 1.0000e+00
        6  2    1    2  501    0 +1.4537994035e+01 -6.8610620930e+01 -3.6940397077e+02 4.1578308385e+02 1.7747537469e+02 0.0000e+00 0.0000e+00
       24  2    3    3    0    0 +3.1140171221e+01 +1.3840743464e+01 -2.6611095604e+02 2.8249618776e+02 8.8474734992e+01 0.0000e+00 0.0000e+00
       -6  2    1    2    0  502 -5.2530865310e+01 +6.0785872994e+01 -1.0033906953e+03 1.0212994527e+03 1.7264203007e+02 0.0000e+00 0.0000e+00
      -24  2    5    5    0    0 -3.0475631423e+01 +5.2196589151e+01 -3.0481584004e+02 3.2230794523e+02 8.5536350117e+01 0.0000e+00 0.0000e+00
        5  1    3    3  501    0 -1.6602177187e+01 -8.2451364393e+01 -1.0329301473e+02 1.3328689609e+02 4.7000000000e+00 0.0000e+00 -1.0000e+00
      -13  1    4    4    0    0 -1.6359601199e+01 +7.8417822891e+00 -7.7353777848e+00 1.9722225288e+01 0.0000000000e+00 0.0000e+00 1.0000e+00
       14  1    4    4    0    0 +4.7499772420e+01 +5.9989611745e+00 -2.5837557826e+02 2.6277396247e+02 0.0000000000e+00 0.0000e+00 -1.0000e+00
       -5  1    5    5    0  502 -2.2055233887e+01 +8.5892838433e+00 -6.9857485523e+02 6.9899150746e+02 4.7000000000e+00 0.0000e+00 1.0000e+00
       13  1    6    6    0    0 +1.0428431133e+01 -1.6999265796e+01 -1.0596138552e+02 1.0782180871e+02 0.0000000000e+00 0.0000e+00 -1.0000e+00
      -14  1    6    6    0    0 -4.0904062556e+01 +6.9195854948e+01 -1.9885445452e+02 2.1448613652e+02 0.0000000000e+00 0.0000e+00 1.0000e+00
       21  1    1    2  504  501 +3.7992871276e+01 +7.8247479352e+00 -6.2505947394e+02 6.2626195072e+02 0.0000000000e+00 0.0000e+00 1.0000e+00
<mgrwt>
<rscale>  3 0.19003109E+03</rscale>
<asrwt>0</asrwt>
<pdfrwt beam="1">  1       21 0.50377195E-02 0.19116073E+03</pdfrwt>
<pdfrwt beam="2">  1       21 0.31239986E+00 0.19116073E+03</pdfrwt>
<totfact> 0.77035257E+03</totfact>
</mgrwt>
</event>
<event>
12      2 +1.4674046e+01 5.02415400e+02 7.54677100e-03 1.03925800e-01
       21 -1    0    0  504  502 +0.0000000000e+00 +0.0000000000e+00 +8.3152867250e+02 8.3152867250e+02 0.0000000000e+00 0.0000e+00 1.0000e+00
       21 -1    0    0  501  503 -0.0000000000e+00 -0.0000000000e+00 -1.9646355031e+02 1.9646355031e+02 0.0000000000e+00 0.0000e+00 1.0000e+00
        6  2    1    2  501    0 +2.9003738039e+01 +1.4653555686e+02 +9.1914648730e+01 2.4696219351e+02 1.7386240573e+02 0.0000e+00 0.0000e+00
       24  2    3    3    0    0 -3.1242364499e+01 +4.4763771111e+01 +8.5353903920e+01 1.2842012242e+02 7.8908544428e+01 0.0000e+00 0.0000e+00
      -24  2    1    2    0    0 -1.2661004448e+02 +2.3378801134e+01 +4.4365605004e+02 4.6899618373e+02 8.0932428080e+01 0.0000e+00 0.0000e+00
        5  1    3    3  501    0 +6.0246102538e+01 +1.0177178575e+02 +6.5607448097e+00 1.1854207109e+02 4.7000000000e+00 0.0000e+00 -1.0000e+00
      -13  1    4    4    0    0 -5.7283773891e+01 +2.4930338952e+01 +6.3382190146e+01 8.8995812144e+01 0.0000000000e+00 0.0000e+00 1.0000e+00
       14  1    4    4    0    0 +2.6041409392e+01 +1.9833432159e+01 +2.1971713774e+01 3.9424310273e+01 0.0000000000e+00 0.0000e+00 -1.0000e+00
       -5  1    1    2    0  502 +7.4634844144e+01 -1.7105800135e+02 -2.2362893118e+01 1.8802496849e+02 4.7000000000e+00 0.0000e+00 1.0000e+00
       13  1    5    5    0    0 -1.2909983815e+02 +6.2886020756e-01 +3.7097762053e+02 3.9279964181e+02 0.0000000000e+00 0.0000e+00 -1.0000e+00
      -14  1    5    5    0    0 +2.4897936681e+00 +2.2749940926e+01 +7.2678429513e+01 7.6196541924e+01 0.0000000000e+00 0.0000e+00 1.0000e+00
       21  1    1    2  504  503 +2.2971462295e+01 +1.1436433539e+00 +1.2185731654e+02 1.2400887708e+02 0.0000000000e+00 0.0000e+00 1.0000e+00
<mgrwt>
<rscale>  3 0.41333484E+03</rscale>
<asrwt>0</asrwt>
<pdfrwt beam="1">  1       21 0.12792749E+00 0.50241538E+03</pdfrwt>
<pdfrwt beam="2">  1       21 0.30225162E-01 0.50241538E+03</pdfrwt>
<totfact> 0.40488325E+03</totfact>
</mgrwt>
</event>
<event>
12      1 +1.4674046e+01 2.82456200e+02 7.54677100e-03 1.09439700e-01
       21 -1    0    0  503  502 +0.0000000000e+00 +0.0000000000e+00 +4.5900209623e+02 4.5900209623e+02 0.0000000000e+00 0.0000e+00 -1.0000e+00
       21 -1    0    0  501  503 -0.0000000000e+00 -0.0000000000e+00 -5.6560138044e+02 5.6560138044e+02 0.0000000000e+00 0.0000e+00 -1.0000e+00
        6  2    1    2  501    0 -5.5577650209e+01 +2.1632741940e+02 -4.7977271494e+02 5.5658645884e+02 1.7239547725e+02 0.0000e+00 0.0000e+00
       24  2    3    3    0    0 -4.0332387101e+01 +2.3987687319e+02 -4.3505975718e+02 5.0359274777e+02 7.1840431175e+01 0.0000e+00 0.0000e+00
       -6  2    1    2    0  502 +5.5577650209e+01 -2.1632741940e+02 +3.7317343073e+02 4.6801701783e+02 1.7290197219e+02 0.0000e+00 0.0000e+00
      -24  2    5    5    0    0 +9.7672320977e+01 -1.2406681698e+02 +2.6335484793e+02 3.1846371230e+02 8.4444672798e+01 0.0000e+00 0.0000e+00
        5  1    3    3  501    0 -1.5245263108e+01 -2.3549453790e+01 -4.4712957760e+01 5.2993711067e+01 4.7000000000e+00 0.0000e+00 -1.0000e+00
      -13  1    4    4    0    0 -1.1215240363e+01 +1.4640943129e+01 -8.0099367666e+01 8.2195179498e+01 0.0000000000e+00 0.0000e+00 1.0000e+00
       14  1    4    4    0    0 -2.9117146738e+01 +2.2523593006e+02 -3.5496038951e+02 4.2139756827e+02 0.0000000000e+00 0.0000e+00 -1.0000e+00
       -5  1    5    5    0  502 -4.2094670768e+01 -9.2260602417e+01 +1.0981858280e+02 1.4955330553e+02 4.7000000000e+00 0.0000e+00 1.0000e+00
       13  1    6    6    0    0 +5.8900368185e+01 -1.2063045419e+02 +2.3377028280e+02 2.6957281942e+02 0.0000000000e+00 0.0000e+00 -1.0000e+00
      -14  1    6    6    0    0 +3.8771952792e+01 -3.4363627901e+00 +2.9584565125e+01 4.8890892875e+01 0.0000000000e+00 0.0000e+00 1.0000e+00
<mgrwt>
<rscale>  2 0.28237875E+03</rscale>
<asrwt>0</asrwt>
<pdfrwt beam="1">  1       21 0.70615707E-01 0.28245623E+03</pdfrwt>
<pdfrwt beam="2">  1       21 0.87015597E-01 0.28245623E+03</pdfrwt>
<totfact> 0.19273284E+03</totfact>
</mgrwt>
</event>
<event>
13      3 +1.4674046e+01 2.17716800e+02 7.54677100e-03 1.14363200e-01
       21 -1    0    0  504  502 +0.0000000000e+00 +0.0000000000e+00 +1.2182871747e+02 1.2182871747e+02 0.0000000000e+00 0.0000e+00 -1.0000e+00
       21 -1    0    0  501  503 -0.0000000000e+00 -0.0000000000e+00 -8.7367326815e+02 8.7367326815e+02 0.0000000000e+00 0.0000e+00 1.0000e+00
       24  2    1    2    0    0 -6.7183820528e+01 -1.0063147332e+02 -4.1334673587e+02 4.3769590402e+02 7.7986031961e+01 0.0000e+00 0.0000e+00
       -6  2    1    2    0  502 +3.6868322649e-01 +6.6753583783e+01 -6.4215239990e+01 1.9684536454e+02 1.7369030951e+02 0.0000e+00 0.0000e+00
      -24  2    4    4    0    0 +4.4206308552e+01 -9.6962066239e+00 -5.7632362037e+01 1.0834829041e+02 7.9810079197e+01 0.0000e+00 0.0000e+00
        5  1    1    2  501    0 +2.1804598233e+01 +6.3022182323e+01 -9.0400758471e+01 1.1243497277e+02 4.7000000000e+00 0.0000e+00 -1.0000e+00
      -13  1    3    3    0    0 -5.2724855945e+01 -1.2643011915e+01 -1.3791975199e+02 1.4819451466e+02 0.0000000000e+00 0.0000e+00 1.0000e+00
       14  1    3    3    0    0 -1.4458964583e+01 -8.7988461404e+01 -2.7542698388e+02 2.8950138936e+02 0.0000000000e+00 0.0000e+00 -1.0000e+00
       -5  1    4    4    0  502 -4.3837625325e+01 +7.6449790407e+01 -6.5828779530e+00 8.8497074130e+01 4.7000000000e+00 0.0000e+00 1.0000e+00
       13  1    5    5    0    0 +2.0167824454e+01 +3.5330785753e+01 -2.6825226941e+01 4.8729850868e+01 0.0000000000e+00 0.0000e+00 -1.0000e+00
      -14  1    5    5    0    0 +2.4038484098e+01 -4.5026992377e+01 -3.0807135095e+01 5.9618439539e+01 0.0000000000e+00 0.0000e+00 1.0000e+00
       21  1    1    2  504  505 +4.6217050343e+01 -6.2113563563e+01 -1.8121461972e+01 7.9514136510e+01 0.0000000000e+00 0.0000e+00 -1.0000e+00
       21  1    1    2  505  503 -1.2065112735e+00 +3.2969270776e+01 -1.6576035437e+02 1.6901160779e+02 0.0000000000e+00 0.0000e+00 1.0000e+00
<mgrwt>
<rscale>  4 0.20741203E+03</rscale>
<asrwt>0</asrwt>
<pdfrwt beam="1">  1       21 0.18742879E-01 0.21771685E+03</pdfrwt>
<pdfrwt beam="2">  1       21 0.13441127E+00 0.21771685E+03</pdfrwt>
<totfact> 0.10164102E+04</totfact>
</mgrwt>
</event>
<event>
12      1 +1.4674046e+01 2.16794800e+02 7.54677100e-03 1.13629500e-01
        1 -1    0    0  502    0 +0.0000000000e+00 +0.0000000000e+00 +9.3591770952e+01 9.3591770952e+01 0.0000000000e+00 0.0000e+00 -1.0000e+00
       -1 -1    0    0    0  501 -0.0000000000e+00 -0.0000000000e+00 -5.0834065535e+02 5.0834065535e+02 0.0000000000e+00 0.0000e+00 1.0000e+00
        6  2    1    2  502    0 +2.2060358573e+01 +1.2711444998e+02 -2.3929698719e+02 3.2207436554e+02 1.7269657218e+02 0.0000e+00 0.0000e+00
       24  2    3    3    0    0 -5.0638198262e+01 +9.0421768457e+01 -1.7191422421e+02 2.1627285425e+02 8.0493003831e+01 0.0000e+00 0.0000e+00
       -6  2    1    2    0  501 -2.2060358573e+01 -1.2711444998e+02 -1.7545189720e+02 2.7985806076e+02 1.7576240533e+02 0.0000e+00 0.0000e+00
      -24  2    5    5    0    0 -7.2578672246e+01 -1.2672880187e+02 -1.4441240946e+02 2.2037874890e+02 7.9899912823e+01 0.0000e+00 0.0000e+00
        5  1    3    3  502    0 +7.2698556835e+01 +3.6692681527e+01 -6.7382762980e+01 1.0580151129e+02 4.7000000000e+00 0.0000e+00 -1.0000e+00
      -13  1    4    4    0    0 -4.0768197369e+00 +8.3669714626e+01 -1.1809177989e+02 1.4478573853e+02 0.0000000000e+00 0.0000e+00 1.0000e+00
       14  1    4    4    0    0 -4.6561378525e+01 +6.7520538310e+00 -5.3822444325e+01 7.1487115722e+01 0.0000000000e+00 0.0000e+00 -1.0000e+00
       -5  1    5    5    0  501 +5.0518313673e+01 -3.8564810916e-01 -3.1039487743e+01 5.9479311867e+01 4.7000000000e+00 0.0000e+00 1.0000e+00
       13  1    6    6    0    0 +1.4741796197e+00 -3.6261310609e+01 -2.3104569928e+00 3.6364736547e+01 0.0000000000e+00 0.0000e+00 -1.0000e+00
      -14  1    6    6    0    0 -7.4052851866e+01 -9.0467491265e+01 -1.4210195247e+02 1.8401401235e+02 0.0000000000e+00 0.0000e+00 1.0000e+00
<mgrwt>
<rscale>  2 0.21679477E+03</rscale>
<asrwt>0</asrwt>
<pdfrwt beam="1">  1        1 0.14398734E-01 0.21679477E+03</pdfrwt>
<pdfrwt beam="2">  1       -1 0.78206254E-01 0.21679477E+03</pdfrwt>
<totfact> 0.67242585E+02</totfact>
</mgrwt>
</event>
<event>
13      2 +1.4674046e+01 2.15060500e+02 7.54677100e-03 1.13762000e-01
       21 -1    0    0  502  503 +0.0000000000e+00 +0.0000000000e+00 +1.6035529054e+03 1.6035529054e+03 0.0000000000e+00 0.0000e+00 1.0000e+00
        1 -1    0    0  501    0 -0.0000000000e+00 -0.0000000000e+00 -5.3806528783e+01 5.3806528783e+01 0.0000000000e+00 0.0000e+00 -1.0000e+00
        6  2    1    2  501    0 +1.1402269971e+00 +1.3031691978e+02 +2.3193053048e+02 3.1678778824e+02 1.7198526713e+02 0.0000e+00 0.0000e+00
       24  2    3    3    0    0 +4.2005389781e+01 +8.2519528979e+01 +2.1738712216e+02 2.5207184876e+02 8.7801655013e+01 0.0000e+00 0.0000e+00
       -6  2    1    2    0  503 +2.4761440385e+01 -1.1993689243e+02 +1.0446573807e+03 1.0659916238e+03 1.7329486948e+02 0.0000e+00 0.0000e+00
      -24  2    5    5    0    0 -1.4285464715e+01 -1.4296981429e+02 +8.7324360308e+02 8.8862209581e+02 8.0314360780e+01 0.0000e+00 0.0000e+00
        5  1    3    3  501    0 -4.0865162784e+01 +4.7797390799e+01 +1.4543408315e+01 6.4715939474e+01 4.7000000000e+00 0.0000e+00 -1.0000e+00
      -13  1    4    4    0    0 +9.2044135867e+00 +8.8322380309e+01 +1.2098078521e+02 1.5007303050e+02 0.0000000000e+00 0.0000e+00 1.0000e+00
       14  1    4    4    0    0 +3.2800976194e+01 -5.8028513294e+00 +9.6406336951e+01 1.0199881826e+02 0.0000000000e+00 0.0000e+00 -1.0000e+00
       -5  1    5    5    0  503 +3.9046905100e+01 +2.3032921860e+01 +1.7141377763e+02 1.7736952796e+02 4.7000000000e+00 0.0000e+00 1.0000e+00
       13  1    6    6    0    0 +3.0069152325e+01 -3.9726490168e+01 +2.0302233310e+02 2.0904644384e+02 0.0000000000e+00 0.0000e+00 -1.0000e+00
      -14  1    6    6    0    0 -4.4354617041e+01 -1.0324332412e+02 +6.7022126998e+02 6.7957565197e+02 0.0000000000e+00 0.0000e+00 1.0000e+00
        1  1    1    2  502    0 -2.5901667382e+01 -1.0380027349e+01 +2.7315846546e+02 2.7458002220e+02 0.0000000000e+00 0.0000e+00 -1.0000e+00
<mgrwt>
<rscale>  3 0.21506050E+03</rscale>
<asrwt>0</asrwt>
<pdfrwt beam="1">  1       21 0.24670041E+00 0.21506050E+03</pdfrwt>
<pdfrwt beam="2">  1        1 0.82779287E-02 0.21506050E+03</pdfrwt>
<totfact> 0.60146451E+02</totfact>
</mgrwt>
</event>
<event>
12      1 +1.4674046e+01 1.74741200e+02 7.54677100e-03 1.17331000e-01
       21 -1    0    0  503  502 +0.0000000000e+00 +0.0000000000e+00 +3.3181637911e+02 3.3181637911e+02 0.0000000000e+00 0.0000e+00 -1.0000e+00
       21 -1    0    0  501  503 -0.0000000000e+00 -0.0000000000e+00 -9.1913889450e+01 9.1913889450e+01 0.0000000000e+00 0.0000e+00 -1.0000e+00
        6  2    1    2  501    0 +8.1637744394e+00 -2.8280834559e+01 +1.0308349075e+02 2.0179803002e+02 1.7096720749e+02 0.0000e+00 0.0000e+00
       24  2    3    3    0    0 +6.6633121017e+01 -2.0916159649e+01 +9.5421892898e+01 1.4218517061e+02 7.8954585335e+01 0.0000e+00 0.0000e+00
       -6  2    1    2    0  502 -8.1637744394e+00 +2.8280834559e+01 +1.3681899890e+02 2.2193223854e+02 1.7224409199e+02 0.0000e+00 0.0000e+00
      -24  2    5    5    0    0 -1.6232750761e+01 +4.6062908415e+01 +1.3799909401e+01 9.7284346812e+01 8.2997065648e+01 0.0000e+00 0.0000e+00
        5  1    3    3  501    0 -5.8469346577e+01 -7.3646749102e+00 +7.6615978550e+00 5.9612859413e+01 4.7000000000e+00 0.0000e+00 -1.0000e+00
      -13  1    4    4    0    0 +4.9548746548e+01 +1.5072746788e+01 +1.7495237785e+01 5.4665796668e+01 0.0000000000e+00 0.0000e+00 1.0000e+00
       14  1    4    4    0    0 +1.7084374469e+01 -3.5988906437e+01 +7.7926655113e+01 8.7519373939e+01 0.0000000000e+00 0.0000e+00 -1.0000e+00
       -5  1    5    5    0  502 +8.0689763218e+00 -1.7782073856e+01 +1.2301908950e+02 1.2464789173e+02 4.7000000000e+00 0.0000e+00 1.0000e+00
       13  1    6    6    0    0 +2.8592788519e+01 +2.7561125622e+01 +2.5761306986e+01 4.7337175015e+01 0.0000000000e+00 0.0000e+00 -1.0000e+00
      -14  1    6    6    0    0 -4.4825539280e+01 +1.8501782794e+01 -1.1961397585e+01 4.9947171797e+01 0.0000000000e+00 0.0000e+00 1.0000e+00
<mgrwt>
<rscale>  2 0.17442570E+03</rscale>
<asrwt>0</asrwt>
<pdfrwt beam="1">  1       21 0.51048673E-01 0.17474118E+03</pdfrwt>
<pdfrwt beam="2">  1       21 0.14140599E-01 0.17474118E+03</pdfrwt>
<totfact> 0.16024659E+05</totfact>
</mgrwt>
</event>
<event>
14      3 +1.4674046e+01 2.31090900e+02 7.54677100e-03 1.12605600e-01
       21 -1    0    0  501  502 +0.0000000000e+00 +0.0000000000e+00 +6.3369406911e+02 6.3369406911e+02 0.0000000000e+00 0.0000e+00 1.0000e+00
       21 -1    0    0  505  503 -0.0000000000e+00 -0.0000000000e+00 -3.3558473179e+02 3.3558473179e+02 0.0000000000e+00 0.0000e+00 -1.0000e+00
       -6  2    1    2    0  504 -5.8063349016e+01 -1.6993406634e+02 +5.9877903484e+01 2.5657758878e+02 1.7319860373e+02 0.0000e+00 0.0000e+00
      -24  2    3    3    0    0 +2.9690258279e+01 -1.1959067313e+02 +2.4454595772e+01 1.4928335053e+02 8.0647696514e+01 0.0000e+00 0.0000e+00
        6  2    1    2  501    0 -3.7064792627e+01 +1.5358037720e+02 +3.9646004635e+02 4.6006626773e+02 1.7181289599e+02 0.0000e+00 0.0000e+00
       24  2    5    5    0    0 -1.4948626971e+01 +9.5252804610e+01 +1.2562583520e+02 1.8210135908e+02 8.9902704486e+01 0.0000e+00 0.0000e+00
        5  1    5    5  501    0 -2.2116165656e+01 +5.8327572592e+01 +2.7083421116e+02 2.7796490865e+02 4.7000000000e+00 0.0000e+00 -1.0000e+00
      -13  1    6    6    0    0 -3.1508483136e+01 +8.5394668769e+01 +1.3325421595e+02 1.6137447144e+02 0.0000000000e+00 0.0000e+00 1.0000e+00
       14  1    6    6    0    0 +1.6559856165e+01 +9.8581358407e+00 -7.6283807480e+00 2.0726887641e+01 0.0000000000e+00 0.0000e+00 -1.0000e+00
       -5  1    3    3    0  504 -8.7753607295e+01 -5.0343393210e+01 +3.5423307712e+01 1.0729423825e+02 4.7000000000e+00 0.0000e+00 1.0000e+00
       13  1    4    4    0    0 -2.0695014433e+01 -6.5410560001e+01 -6.8464713027e+00 6.8947075002e+01 0.0000000000e+00 0.0000e+00 -1.0000e+00
      -14  1    4    4    0    0 +5.0385272711e+01 -5.4180113132e+01 +3.1301067075e+01 8.0336275525e+01 0.0000000000e+00 0.0000e+00 1.0000e+00
       21  1    1    2  504  503 +1.1354394160e+02 +2.9752214740e+01 -1.8399489888e+02 2.1824652063e+02 0.0000000000e+00 0.0000e+00 -1.0000e+00
       21  1    1    2  505  502 -1.8415799952e+01 -1.3398525598e+01 +2.5766286364e+01 3.4388423765e+01 0.0000000000e+00 0.0000e+00 1.0000e+00
<mgrwt>
<rscale>  4 0.23083125E+03</rscale>
<asrwt>0</asrwt>
<pdfrwt beam="1">  1       21 0.97491395E-01 0.23109087E+03</pdfrwt>
<pdfrwt beam="2">  1       21 0.51628420E-01 0.23109087E+03</pdfrwt>
<totfact> 0.30118443E+03</totfact>
</mgrwt>
</event>
<event>
13      2 +1.4674046e+01 2.05412100e+02 7.54677100e-03 1.14533800e-01
       21 -1    0    0  501  502 +0.0000000000e+00 +0.0000000000e+00 +9.1314419768e+01 9.1314419768e+01 0.0000000000e+00 0.0000e+00 1.0000e+00
       21 -1    0    0  504  503 -0.0000000000e+00 -0.0000000000e+00 -6.6326824350e+02 6.6326824350e+02 0.0000000000e+00 0.0000e+00 1.0000e+00
        6  2    1    2  501    0 -5.1837697189e+01 +1.2266220922e+02 -3.0093764712e+02 3.7191396014e+02 1.7327250755e+02 0.0000e+00 0.0000e+00
       24  2    3    3    0    0 -6.1952393030e+01 +8.6700627825e+01 -3.0607382985e+02 3.3391379196e+02 8.0387394987e+01 0.0000e+00 0.0000e+00
       -6  2    1    2    0  503 +3.7395273118e+01 -9.0419135404e+01 -1.3007473164e+02 2.3736663730e+02 1.7276995744e+02 0.0000e+00 0.0000e+00
      -24  2    5    5    0    0 -4.2116851147e+01 -7.3227316039e+01 -7.6517678849e+01 1.3985671749e+02 8.1048610631e+01 0.0000e+00 0.0000e+00
        5  1    3    3  501    0 +1.0114695841e+01 +3.5961581398e+01 +5.1361827338e+00 3.8000168180e+01 4.7000000000e+00 0.0000e+00 -1.0000e+00
      -13  1    4    4    0    0 -5.8057573440e+01 +8.8182168289e+01 -1.8683504486e+02 2.1460221486e+02 0.0000000000e+00 0.0000e+00 1.0000e+00
       14  1    4    4    0    0 -3.8948195894e+00 -1.4815404635e+00 -1.1923878500e+02 1.1931157710e+02 0.0000000000e+00 0.0000e+00 -1.0000e+00
       -5  1    5    5    0  503 +7.9512124265e+01 -1.7191819365e+01 -5.3557052789e+01 9.7509919812e+01 4.7000000000e+00 0.0000e+00 1.0000e+00
       13  1    6    6    0    0 -1.0386610277e+01 -3.3703050562e+01 -8.1621995653e+01 8.8915282514e+01 0.0000000000e+00 0.0000e+00 -1.0000e+00
      -14  1    6    6    0    0 -3.1730240871e+01 -3.9524265477e+01 +5.1043168033e+00 5.0941434974e+01 0.0000000000e+00 0.0000e+00 1.0000e+00
       21  1    1    2  504  502 +1.4442424071e+01 -3.2243073819e+01 -1.4094144498e+02 1.4530206583e+02 0.0000000000e+00 0.0000e+00 1.0000e+00
<mgrwt>
<rscale>  3 0.20530605E+03</rscale>
<asrwt>0</asrwt>
<pdfrwt beam="1">  1       21 0.14048372E-01 0.20541207E+03</pdfrwt>
<pdfrwt beam="2">  1       21 0.10204127E+00 0.20541207E+03</pdfrwt>
<totfact> 0.34325833E+04</totfact>
</mgrwt>
</event>
<event>
13      2 +1.4674046e+01 2.46633000e+02 7.54677100e-03 1.11549300e-01
       21 -1    0    0  501  502 +0.0000000000e+00 +0.0000000000e+00 +6.3180453641e+02 6.3180453641e+02 0.0000000000e+00 0.0000e+00 1.0000e+00
       21 -1    0    0  502  503 -0.0000000000e+00 -0.0000000000e+00 -2.0214541198e+03 2.0214541198e+03 0.0000000000e+00 0.0000e+00 -1.0000e+00
        6  2    1    2  501    0 -9.6477752939e+01 +1.4003170571e+02 +5.0848242069e+02 5.6342938739e+02 1.7315157235e+02 0.0000e+00 0.0000e+00
       24  2    3    3    0    0 -1.0415423996e+02 +3.7844975772e+01 +3.2955413833e+02 3.5718080810e+02 8.1803738877e+01 0.0000e+00 0.0000e+00
       -6  2    1    2    0  504 +1.4010859484e+02 -1.6193207843e+02 -1.0330061375e+02 2.9433407352e+02 1.7351977887e+02 0.0000e+00 0.0000e+00
      -24  2    5    5    0    0 +1.4365862691e+02 -7.7875465544e+01 -1.0584606897e+02 2.1003290959e+02 7.8791138930e+01 0.0000e+00 0.0000e+00
        5  1    3    3  501    0 +7.6764870211e+00 +1.0218672994e+02 +1.7892828236e+02 2.0624857928e+02 4.7000000000e+00 0.0000e+00 -1.0000e+00
      -13  1    4    4    0    0 -4.0042634766e+01 +5.8040325190e+01 +1.7080100313e+02 1.8478385919e+02 0.0000000000e+00 0.0000e+00 1.0000e+00
       14  1    4    4    0    0 -6.4111605195e+01 -2.0195349418e+01 +1.5875313520e+02 1.7239694891e+02 0.0000000000e+00 0.0000e+00 -1.0000e+00
       -5  1    5    5    0  504 -3.5500320687e+00 -8.4056612887e+01 +2.5454552216e+00 8.4301163931e+01 4.7000000000e+00 0.0000e+00 1.0000e+00
       13  1    6    6    0    0 +4.6949256648e+00 -1.4785403434e+01 -4.1687909125e+01 4.4480695238e+01 0.0000000000e+00 0.0000e+00 -1.0000e+00
      -14  1    6    6    0    0 +1.3896370125e+02 -6.3090062110e+01 -6.4158159843e+01 1.6555221435e+02 0.0000000000e+00 0.0000e+00 1.0000e+00
       21  1    1    2  504  503 -4.3630841903e+01 +2.1900372717e+01 -1.7948313904e+03 1.7954951953e+03 0.0000000000e+00 0.0000e+00 -1.0000e+00
<mgrwt>
<rscale>  3 0.24656826E+03</rscale>
<asrwt>0</asrwt>
<pdfrwt beam="1">  1       21 0.97200699E-01 0.24663301E+03</pdfrwt>
<pdfrwt beam="2">  1       21 0.31099294E+00 0.24663301E+03</pdfrwt>
<totfact> 0.23699600E+01</totfact>
</mgrwt>
</event>
<event>
13      2 +1.4674046e+01 2.60688300e+02 7.54677100e-03 1.12189900e-01
       21 -1    0    0  504  502 +0.0000000000e+00 +0.0000000000e+00 +6.3101156020e+02 6.3101156020e+02 0.0000000000e+00 0.0000e+00 1.0000e+00
       21 -1    0    0  501  503 -0.0000000000e+00 -0.0000000000e+00 -1.6814525827e+03 1.6814525827e+03 0.0000000000e+00 0.0000e+00 1.0000e+00
        6  2    1    2  501    0 -5.3172362257e+01 -1.9101696983e+02 -1.5953345907e+03 1.6163736357e+03 1.6809667156e+02 0.0000e+00 0.0000e+00
       24  2    3    3    0    0 +1.2428181440e+01 -1.3216667775e+02 -7.0821250985e+02 7.2487239365e+02 7.9072988910e+01 0.0000e+00 0.0000e+00
       -6  2    1    2    0  502 +2.7836894859e+01 -2.9895247971e+01 +3.7926861999e+02 4.1882580096e+02 1.7292121581e+02 0.0000e+00 0.0000e+00
      -24  2    5    5    0    0 -3.0808306334e+00 +2.4897828058e+01 +9.6670532596e+01 1.2927104633e+02 8.2075685732e+01 0.0000e+00 0.0000e+00
        5  1    3    3  501    0 -6.5600543697e+01 -5.8850292082e+01 -8.8712208084e+02 8.9150124202e+02 4.7000000000e+00 0.0000e+00 -1.0000e+00
      -13  1    4    4    0    0 -1.0416383563e+01 -1.2188472200e+02 -6.5132467386e+02 6.6271277133e+02 0.0000000000e+00 0.0000e+00 1.0000e+00
       14  1    4    4    0    0 +2.2844565003e+01 -1.0281955744e+01 -5.6887835989e+01 6.2159622325e+01 0.0000000000e+00 0.0000e+00 -1.0000e+00
       -5  1    5    5    0  502 +3.0917725493e+01 -5.4793076029e+01 +2.8259808739e+02 2.8955475463e+02 4.7000000000e+00 0.0000e+00 1.0000e+00
       13  1    6    6    0    0 +2.2073305529e+01 +4.7233439628e+01 +6.0863147466e+01 8.0140822029e+01 0.0000000000e+00 0.0000e+00 -1.0000e+00
      -14  1    6    6    0    0 -2.5154136163e+01 -2.2335611570e+01 +3.5807385130e+01 4.9130224304e+01 0.0000000000e+00 0.0000e+00 1.0000e+00
       21  1    1    2  504  503 +2.5335467397e+01 +2.2091221780e+02 +1.6562494819e+02 2.7726470628e+02 0.0000000000e+00 0.0000e+00 1.0000e+00
<mgrwt>
<rscale>  3 0.23686512E+03</rscale>
<asrwt>0</asrwt>
<pdfrwt beam="1">  1       21 0.97078703E-01 0.26068831E+03</pdfrwt>
<pdfrwt beam="2">  1       21 0.25868501E+00 0.26068831E+03</pdfrwt>
<totfact> 0.47275696E+01</totfact>
</mgrwt>
</event>
<event>
13      2 +1.4674046e+01 2.22345800e+02 7.54677100e-03 1.13225500e-01
       21 -1    0    0  504  502 +0.0000000000e+00 +0.0000000000e+00 +1.1677510984e+02 1.1677510984e+02 0.0000000000e+00 0.0000e+00 -1.0000e+00
       21 -1    0    0  501  503 -0.0000000000e+00 -0.0000000000e+00 -5.8461562352e+02 5.8461562352e+02 0.0000000000e+00 0.0000e+00 -1.0000e+00
        6  2    1    2  501    0 -1.1398078720e+02 +7.9585385349e+01 -2.1556598177e+02 3.0926766065e+02 1.7277829730e+02 0.0000e+00 0.0000e+00
       24  2    3    3    0    0 +3.3237398812e+00 +1.8376990661e+01 -1.0152200272e+02 1.3452516780e+02 8.6264376780e+01 0.0000e+00 0.0000e+00
       -6  2    1    2    0  502 +6.8156072562e+01 -1.3065377346e+02 -2.1888225875e+02 3.1581495622e+02 1.7353381410e+02 0.0000e+00 0.0000e+00
      -24  2    5    5    0    0 -1.1439585845e+01 -4.2654147873e+01 -1.5709416504e+02 1.8195211051e+02 8.0484491499e+01 0.0000e+00 0.0000e+00
        5  1    3    3  501    0 -1.1730452708e+02 +6.1208394688e+01 -1.1404397905e+02 1.7474249286e+02 4.7000000000e+00 0.0000e+00 -1.0000e+00
      -13  1    4    4    0    0 +1.0709720641e+01 +4.0432509264e+01 -1.0305060488e+02 1.1121561531e+02 0.0000000000e+00 0.0000e+00 1.0000e+00
       14  1    4    4    0    0 -7.3859807601e+00 -2.2055518602e+01 +1.5286021613e+00 2.3309552488e+01 0.0000000000e+00 0.0000e+00 -1.0000e+00
       -5  1    5    5    0  502 +7.9595658407e+01 -8.7999625582e+01 -6.1788093705e+01 1.3386284572e+02 4.7000000000e+00 0.0000e+00 1.0000e+00
       13  1    6    6    0    0 -1.2619297814e+01 +2.1614528918e+01 -2.6830636713e+01 3.6692200862e+01 0.0000000000e+00 0.0000e+00 -1.0000e+00
      -14  1    6    6    0    0 +1.1797119681e+00 -6.4268676791e+01 -1.3026352833e+02 1.4525990964e+02 0.0000000000e+00 0.0000e+00 1.0000e+00
       21  1    1    2  504  503 +4.5824714636e+01 +5.1068388106e+01 -3.3392273167e+01 7.6308116491e+01 0.0000000000e+00 0.0000e+00 1.0000e+00
<mgrwt>
<rscale>  3 0.22219836E+03</rscale>
<asrwt>0</asrwt>
<pdfrwt beam="1">  1       21 0.17965402E-01 0.22234579E+03</pdfrwt>
<pdfrwt beam="2">  1       21 0.89940865E-01 0.22234579E+03</pdfrwt>
<totfact> 0.29166012E+04</totfact>
</mgrwt>
</event>
<event>
12      1 +1.4674046e+01 2.26254200e+02 7.54677100e-03 1.12930400e-01
       -1 -1    0    0    0  501 -0.0000000000e+00 +0.0000000000e+00 +1.3277299232e+03 1.3277299232e+03 0.0000000000e+00 0.0000e+00 1.0000e+00
        1 -1    0    0  502    0 +0.0000000000e+00 -0.0000000000e+00 -3.8575293998e+01 3.8575293998e+01 0.0000000000e+00 0.0000e+00 -1.0000e+00
        6  2    1    2  502    0 -9.0949708263e+01 -1.1695114902e+02 +6.6239634280e+02 7.0025268641e+02 1.7214961275e+02 0.0000e+00 0.0000e+00
       24  2    3    3    0    0 -4.6747032270e+01 -4.3634548296e+01 +5.4639216114e+02 5.5600199951e+02 8.0650919852e+01 0.0000e+00 0.0000e+00
       -6  2    1    2    0  501 +9.0949708263e+01 +1.1695114902e+02 +6.2675828638e+02 6.6605253078e+02 1.6985465408e+02 0.0000e+00 0.0000e+00
      -24  2    5    5    0    0 -5.2750719089e+00 +3.9848160941e+01 +3.7914127732e+02 3.8939325971e+02 7.9141014807e+01 0.0000e+00 0.0000e+00
        5  1    3    3  502    0 -4.4202675993e+01 -7.3316600725e+01 +1.1600418166e+02 1.4425068690e+02 4.7000000000e+00 0.0000e+00 -1.0000e+00
      -13  1    4    4    0    0 -4.1878841166e+01 -6.7016227147e+01 +4.2390559448e+02 4.3120872565e+02 0.0000000000e+00 0.0000e+00 1.0000e+00
       14  1    4    4    0    0 -4.8681911040e+00 +2.3381678851e+01 +1.2248656665e+02 1.2479327386e+02 0.0000000000e+00 0.0000e+00 -1.0000e+00
       -5  1    5    5    0  501 +9.6224780172e+01 +7.7102988079e+01 +2.4761700906e+02 2.7665927107e+02 4.7000000000e+00 0.0000e+00 1.0000e+00
       13  1    6    6    0    0 -3.9251869619e+01 +2.2760822771e+01 +1.3790947955e+02 1.4518191647e+02 0.0000000000e+00 0.0000e+00 -1.0000e+00
      -14  1    6    6    0    0 +3.3976797710e+01 +1.7087338170e+01 +2.4123179777e+02 2.4421134324e+02 0.0000000000e+00 0.0000e+00 1.0000e+00
<mgrwt>
<rscale>  2 0.22625420E+03</rscale>
<asrwt>0</asrwt>
<pdfrwt beam="2">  1        1 0.59346616E-02 0.22625420E+03</pdfrwt>
<pdfrwt beam="1">  1       -1 0.20426611E+00 0.22625420E+03</pdfrwt>
<totfact> 0.20588044E+02</totfact>
</mgrwt>
</event>
<event>
13      2 +1.4674046e+01 3.35347500e+02 7.54677100e-03 1.06889000e-01
       21 -1    0    0  501  502 +0.0000000000e+00 +0.0000000000e+00 +7.3138613713e+02 7.3138613713e+02 0.0000000000e+00 0.0000e+00 1.0000e+00
       21 -1    0    0  504  503 -0.0000000000e+00 -0.0000000000e+00 -2.8901709146e+02 2.8901709146e+02 0.0000000000e+00 0.0000e+00 -1.0000e+00
       -6  2    1    2    0  503 +2.4939697807e+02 +2.4876502232e+01 +2.3683175846e+02 3.8582789028e+02 1.7307855462e+02 0.0000e+00 0.0000e+00
      -24  2    3    3    0    0 +1.3097364665e+02 -2.2843721553e+01 +5.8361386308e+01 1.6633969261e+02 8.1159781867e+01 0.0000e+00 0.0000e+00
        6  2    1    2  501    0 -2.9904975237e+02 -5.7707917364e+01 -6.6806429784e+01 3.5580231235e+02 1.7138036146e+02 0.0000e+00 0.0000e+00
       24  2    5    5    0    0 -9.4441553428e+01 -2.5597946679e+01 +2.4276511274e+01 1.2949774447e+02 8.1276410689e+01 0.0000e+00 0.0000e+00
        5  1    5    5  501    0 -2.0460819894e+02 -3.2109970685e+01 -9.1082941058e+01 2.2630456788e+02 4.7000000000e+00 0.0000e+00 -1.0000e+00
      -13  1    6    6    0    0 -2.4939441223e+01 -4.7715868296e+01 +5.0937234638e+00 5.4080734411e+01 0.0000000000e+00 0.0000e+00 1.0000e+00
       14  1    6    6    0    0 -6.9502112205e+01 +2.2117921617e+01 +1.9182787811e+01 7.5417010056e+01 0.0000000000e+00 0.0000e+00 -1.0000e+00
       -5  1    3    3    0  503 +1.1842333142e+02 +4.7720223785e+01 +1.7847037215e+02 2.1948819767e+02 4.7000000000e+00 0.0000e+00 1.0000e+00
       13  1    4    4    0    0 +1.1279192757e+02 -1.0981709325e+01 +7.7587814483e+01 1.3734076533e+02 0.0000000000e+00 0.0000e+00 -1.0000e+00
      -14  1    4    4    0    0 +1.8181719083e+01 -1.1862012228e+01 -1.9226428175e+01 2.8998927278e+01 0.0000000000e+00 0.0000e+00 1.0000e+00
       21  1    1    2  504  502 +4.9652774299e+01 +3.2831415132e+01 +2.7234371700e+02 2.7877302596e+02 0.0000000000e+00 0.0000e+00 1.0000e+00
<mgrwt>
<rscale>  3 0.33512894E+03</rscale>
<asrwt>0</asrwt>
<pdfrwt beam="1">  1       21 0.11252094E+00 0.33534747E+03</pdfrwt>
<pdfrwt beam="2">  1       21 0.44464168E-01 0.33534747E+03</pdfrwt>
<totfact> 0.27303194E+03</totfact>
</mgrwt>
</event>
<event>
12      1 +1.4674046e+01 2.13932900e+02 7.54677100e-03 1.13865100e-01
       21 -1    0    0  501  502 +0.0000000000e+00 +0.0000000000e+00 +1.4242154220e+02 1.4242154220e+02 0.0000000000e+00 0.0000e+00 -1.0000e+00
       21 -1    0    0  502  503 -0.0000000000e+00 -0.0000000000e+00 -3.3059796169e+02 3.3059796169e+02 0.0000000000e+00 0.0000e+00 1.0000e+00
        6  2    1    2  501    0 +1.2658219000e+02 -2.2566961981e+00 -5.1753328391e+01 2.1929021463e+02 1.7141075733e+02 0.0000e+00 0.0000e+00
       24  2    3    3    0    0 +1.5029373202e+02 +2.1657774097e+01 -6.4079619808e+01 1.8312162917e+02 7.9812707823e+01 0.0000e+00 0.0000e+00
       -6  2    1    2    0  503 -1.2658219000e+02 +2.2566961981e+00 -1.3642309110e+02 2.5372928926e+02 1.7245042459e+02 0.0000e+00 0.0000e+00
      -24  2    5    5    0    0 -1.4777241717e+02 +3.7675840235e+00 -1.5038037939e+02 2.2787963925e+02 8.6394383570e+01 0.0000e+00 0.0000e+00
        5  1    3    3  501    0 -2.3711542018e+01 -2.3914470295e+01 +1.2326291417e+01 3.6168585464e+01 4.7000000000e+00 0.0000e+00 -1.0000e+00
      -13  1    4    4    0    0 +1.2053753791e+02 +4.1340816477e+01 -7.2297446973e+01 1.4651034773e+02 0.0000000000e+00 0.0000e+00 1.0000e+00
       14  1    4    4    0    0 +2.9756194110e+01 -1.9683042379e+01 +8.2178271645e+00 3.6611281438e+01 0.0000000000e+00 0.0000e+00 -1.0000e+00
       -5  1    5    5    0  503 +2.1190227169e+01 -1.5108878254e+00 +1.3957288291e+01 2.5849650016e+01 4.7000000000e+00 0.0000e+00 1.0000e+00
       13  1    6    6    0    0 -1.3979837768e+02 -2.4329844849e+01 -1.2771014401e+02 1.9090680615e+02 0.0000000000e+00 0.0000e+00 -1.0000e+00
      -14  1    6    6    0    0 -7.9740394950e+00 +2.8097428873e+01 -2.2670235380e+01 3.6972833098e+01 0.0000000000e+00 0.0000e+00 1.0000e+00
<mgrwt>
<rscale>  2 0.21372331E+03</rscale>
<asrwt>0</asrwt>
<pdfrwt beam="1">  1       21 0.21911007E-01 0.21393292E+03</pdfrwt>
<pdfrwt beam="2">  1       21 0.50861224E-01 0.21393292E+03</pdfrwt>
<totfact> 0.70855013E+04</totfact>
</mgrwt>
</event>
<event>
13      3 +1.4674046e+01 3.21204900e+02 7.54677100e-03 1.07509600e-01
        1 -1    0    0  501    0 -0.0000000000e+00 +0.0000000000e+00 +7.6033273781e+02 7.6033273781e+02 0.0000000000e+00 0.0000e+00 1.0000e+00
       21 -1    0    0  502  503 +0.0000000000e+00 -0.0000000000e+00 -1.5388470538e+02 1.5388470538e+02 0.0000000000e+00 0.0000e+00 -1.0000e+00
       24  2    1    2    0    0 -2.9718059165e+01 -1.3408924858e+01 +1.8669802903e+01 9.0239993429e+01 8.2047136253e+01 0.0000e+00 0.0000e+00
       -6  2    1    2    0  503 -3.4938682498e+01 +2.4943941407e+02 +3.2372232775e+02 4.4660221799e+02 1.7668237830e+02 0.0000e+00 0.0000e+00
      -24  2    4    4    0    0 -5.8104712664e+01 +1.1192367748e+02 +9.8225620702e+01 1.7904201999e+02 8.0651752269e+01 0.0000e+00 0.0000e+00
        5  1    1    2  501    0 +9.0909976969e+01 -2.1210946581e+02 +2.4670461658e+02 3.3784657352e+02 4.7000000000e+00 0.0000e+00 -1.0000e+00
      -13  1    3    3    0    0 -1.2514314401e+01 +1.5428997169e+01 +4.3934596293e+01 4.8217328524e+01 0.0000000000e+00 0.0000e+00 1.0000e+00
       14  1    3    3    0    0 -1.7203744764e+01 -2.8837922027e+01 -2.5264793390e+01 4.2022664906e+01 0.0000000000e+00 0.0000e+00 -1.0000e+00
       -5  1    4    4    0  504 -4.1157151567e+00 +7.5173832604e+01 +1.0705741558e+02 1.3096344700e+02 4.7000000000e+00 0.0000e+00 1.0000e+00
       13  1    5    5    0    0 -4.6090871349e+01 +1.1958487561e+01 +4.3247579465e+01 6.4325165962e+01 0.0000000000e+00 0.0000e+00 -1.0000e+00
      -14  1    5    5    0    0 -1.2013841315e+01 +9.9965189924e+01 +5.4978041236e+01 1.1471685403e+02 0.0000000000e+00 0.0000e+00 1.0000e+00
       21  1    4    4  504  503 +2.7281745323e+01 +6.2341903978e+01 +1.1843929147e+02 1.3659675100e+02 0.0000000000e+00 0.0000e+00 1.0000e+00
        1  1    1    2  502    0 -2.6253235306e+01 -2.3921023403e+01 +1.7351285189e+01 3.9528658242e+01 0.0000000000e+00 0.0000e+00 1.0000e+00
<mgrwt>
<rscale>  4 0.32120492E+03</rscale>
<asrwt>0</asrwt>
<pdfrwt beam="2">  1       21 0.23674571E-01 0.32120492E+03</pdfrwt>
<pdfrwt beam="1">  1        1 0.11697427E+00 0.32120492E+03</pdfrwt>
<totfact> 0.45013984E+03</totfact>
</mgrwt>
</event>
<event>
12      1 +1.4674046e+01 2.17157300e+02 7.54677100e-03 1.13724800e-01
       21 -1    0    0  503  502 +0.0000000000e+00 +0.0000000000e+00 +5.6133535993e+02 5.6133535993e+02 0.0000000000e+00 0.0000e+00 1.0000e+00
       21 -1    0    0  501  503 -0.0000000000e+00 -0.0000000000e+00 -2.7078955071e+02 2.7078955071e+02 0.0000000000e+00 0.0000e+00 -1.0000e+00
        6  2    1    2  501    0 +1.1949723394e+02 -1.5833956333e+01 -2.0317307620e+02 2.9275897066e+02 1.7291099710e+02 0.0000e+00 0.0000e+00
       24  2    3    3    0    0 +1.3937270805e+02 +2.6859414812e+01 -1.2312247002e+02 1.9976462696e+02 6.7827602386e+01 0.0000e+00 0.0000e+00
       -6  2    1    2    0  502 -1.1949723394e+02 +1.5833956333e+01 +4.9371888542e+02 5.3936593998e+02 1.8062938936e+02 0.0000e+00 0.0000e+00
      -24  2    5    5    0    0 -5.5173643758e+01 +2.9513487698e+01 +1.0149837136e+02 1.4164282590e+02 7.6456483157e+01 0.0000e+00 0.0000e+00
        5  1    3    3  501    0 -1.9875474111e+01 -4.2693371145e+01 -8.0050606178e+01 9.2994343701e+01 4.7000000000e+00 0.0000e+00 -1.0000e+00
      -13  1    4    4    0    0 +2.8685510137e+01 -1.3025376828e+01 -3.0396450442e+00 3.1650566746e+01 0.0000000000e+00 0.0000e+00 1.0000e+00
       14  1    4    4    0    0 +1.1068719792e+02 +3.9884791640e+01 -1.2008282497e+02 1.6811406021e+02 0.0000000000e+00 0.0000e+00 -1.0000e+00
       -5  1    5    5    0  502 -6.4323590185e+01 -1.3679531366e+01 +3.9222051405e+02 3.9772311409e+02 4.7000000000e+00 0.0000e+00 1.0000e+00
       13  1    6    6    0    0 -4.2220789064e+01 -4.6733226715e+00 +1.0765293463e+01 4.3821530295e+01 0.0000000000e+00 0.0000e+00 -1.0000e+00
      -14  1    6    6    0    0 -1.2952854694e+01 +3.4186810370e+01 +9.0733077899e+01 9.7821295601e+01 0.0000000000e+00 0.0000e+00 1.0000e+00
<mgrwt>
<rscale>  2 0.21554527E+03</rscale>
<asrwt>0</asrwt>
<pdfrwt beam="1">  1       21 0.86359286E-01 0.21715727E+03</pdfrwt>
<pdfrwt beam="2">  1       21 0.41659931E-01 0.21715727E+03</pdfrwt>
<totfact> 0.62954402E+03</totfact>
</mgrwt>
</event>
<event>
13      2 +1.4674046e+01 1.84461900e+02 7.54677100e-03 1.16453400e-01
        1 -1    0    0  501    0 -0.0000000000e+00 +0.0000000000e+00 +2.2275538993e+03 2.2275538993e+03 0.0000000000e+00 0.0000e+00 -1.0000e+00
       21 -1    0    0  502  503 +0.0000000000e+00 -0.0000000000e+00 -3.6409976001e+01 3.6409976001e+01 0.0000000000e+00 0.0000e+00 -1.0000e+00
        6  2    1    2  501    0 +2.9496171645e+00 -5.2399884965e+01 +9.2821231341e+02 9.4605076660e+02 1.7515566227e+02 0.0000e+00 0.0000e+00
       24  2    3    3    0    0 +5.0795510808e+01 +1.8272567763e+01 +5.1869194348e+02 5.2770539671e+02 8.0731547988e+01 0.0000e+00 0.0000e+00
       -6  2    1    2    0  503 +2.9607125481e+01 +5.4045665038e+01 +2.7555936214e+02 3.3000288723e+02 1.7079645115e+02 0.0000e+00 0.0000e+00
      -24  2    5    5    0    0 +6.1639931655e+01 -7.8058481707e+00 +1.1462701711e+02 1.5458048262e+02 8.3038305120e+01 0.0000e+00 0.0000e+00
        5  1    3    3  501    0 -4.7845893644e+01 -7.0672452728e+01 +4.0952036993e+02 4.1834536988e+02 4.7000000000e+00 0.0000e+00 -1.0000e+00
      -13  1    4    4    0    0 +3.9907946328e+01 -2.2584350129e+01 +1.5727344709e+02 1.6382195888e+02 0.0000000000e+00 0.0000e+00 1.0000e+00
       14  1    4    4    0    0 +1.0887564481e+01 +4.0856917892e+01 +3.6141849639e+02 3.6388343784e+02 0.0000000000e+00 0.0000e+00 -1.0000e+00
       -5  1    5    5    0  503 -3.2032806174e+01 +6.1851513209e+01 +1.6093234504e+02 1.7542240460e+02 4.7000000000e+00 0.0000e+00 1.0000e+00
       13  1    6    6    0    0 +9.9034334728e+00 -3.7194499514e+01 +7.1128805336e+01 8.0875309812e+01 0.0000000000e+00 0.0000e+00 -1.0000e+00
      -14  1    6    6    0    0 +5.1736498182e+01 +2.9388651343e+01 +4.3498211769e+01 7.3705172810e+01 0.0000000000e+00 0.0000e+00 1.0000e+00
        1  1    1    2  502    0 -3.2556742645e+01 -1.6457800732e+00 +9.8737224771e+02 9.8791022144e+02 0.0000000000e+00 0.0000e+00 -1.0000e+00
<mgrwt>
<rscale>  3 0.18341954E+03</rscale>
<asrwt>0</asrwt>
<pdfrwt beam="2">  1       21 0.56015365E-02 0.18446187E+03</pdfrwt>
<pdfrwt beam="1">  1        1 0.34270049E+00 0.18446187E+03</pdfrwt>
<totfact> 0.61315128E+03</totfact>
</mgrwt>
</event>
<event>
14      3 +1.4674046e+01 2.27666900e+02 7.54677100e-03 1.12841800e-01
       21 -1    0    0  504  502 +0.0000000000e+00 +0.0000000000e+00 +8.9149583018e+02 8.9149583018e+02 0.0000000000e+00 0.0000e+00 -1.0000e+00
       21 -1    0    0  505  503 -0.0000000000e+00 -0.0000000000e+00 -1.8453434127e+02 1.8453434127e+02 0.0000000000e+00 0.0000e+00 -1.0000e+00
        6  2    1    2  501    0 -1.1056438288e+02 -5.5577751335e+01 +4.9022719728e+02 5.3423148989e+02 1.7253176705e+02 0.0000e+00 0.0000e+00
       24  2    3    3    0    0 -1.0146847253e+02 +1.9109817168e+01 +2.4890512420e+02 2.8140862418e+02 8.1092643816e+01 0.0000e+00 0.0000e+00
       -6  2    1    2    0  502 +1.7106829953e+02 +1.1614764625e+02 +3.0484366434e+02 4.0636424633e+02 1.7160303661e+02 0.0000e+00 0.0000e+00
      -24  2    5    5    0    0 +2.3537358251e+01 +7.0085365804e+01 +9.4678710228e+01 1.4544565701e+02 8.2002531915e+01 0.0000e+00 0.0000e+00
        5  1    3    3  501    0 -9.0959103569e+00 -7.4687568503e+01 +2.4132207308e+02 2.5282286572e+02 4.7000000000e+00 0.0000e+00 -1.0000e+00
      -13  1    4    4    0    0 +1.2785794071e+01 +4.9837466952e+00 +1.2959313019e+01 1.8874799471e+01 0.0000000000e+00 0.0000e+00 1.0000e+00
       14  1    4    4    0    0 -1.1425426660e+02 +1.4126070473e+01 +2.3594581118e+02 2.6253382471e+02 0.0000000000e+00 0.0000e+00 -1.0000e+00
       -5  1    5    5    0  502 +1.4753094128e+02 +4.6062280448e+01 +2.1016495411e+02 2.6091858932e+02 4.7000000000e+00 0.0000e+00 1.0000e+00
       13  1    6    6    0    0 -2.7533902113e+01 +1.3136092133e+01 +1.1930339295e+01 3.2756765374e+01 0.0000000000e+00 0.0000e+00 -1.0000e+00
      -14  1    6    6    0    0 +5.1071260364e+01 +5.6949273671e+01 +8.2748370933e+01 1.1268889164e+02 0.0000000000e+00 0.0000e+00 1.0000e+00
       21  1    1    2  504  503 -1.7318163156e+01 -4.1526495530e+01 -7.3227876214e+01 8.5945857730e+01 0.0000000000e+00 0.0000e+00 1.0000e+00
       21  1    1    2  505  501 -4.3185753488e+01 -1.9043399387e+01 -1.4881496496e+01 4.9488577496e+01 0.0000000000e+00 0.0000e+00 -1.0000e+00
<mgrwt>
<rscale>  4 0.22749098E+03</rscale>
<asrwt>0</asrwt>
<pdfrwt beam="1">  1       21 0.13715320E+00 0.22766694E+03</pdfrwt>
<pdfrwt beam="2">  1       21 0.28389899E-01 0.22766694E+03</pdfrwt>
<totfact> 0.43518918E+03</totfact>
</mgrwt>
</event>
<event>
14      3 +1.4674046e+01 2.08192100e+02 7.54677100e-03 1.14301200e-01
        4 -1    0    0  501    0 -0.0000000000e+00 +0.0000000000e+00 +7.8598996447e+02 7.8598996447e+02 0.0000000000e+00 0.0000e+00 1.0000e+00
       21 -1    0    0  504  503 +0.0000000000e+00 -0.0000000000e+00 -3.4568871820e+02 3.4568871820e+02 0.0000000000e+00 0.0000e+00 1.0000e+00
        6  2    1    2  501    0 -1.3424199993e+02 -9.0449474625e+01 +7.1890911424e+01 2.4762179855e+02 1.7304979042e+02 0.0000e+00 0.0000e+00
       24  2    3    3    0    0 -7.4850064326e+01 +1.9035334255e+01 +4.5816010193e+01 1.2027849930e+02 8.0018338667e+01 0.0000e+00 0.0000e+00
       -6  2    1    2    0  503 +1.1880435750e+02 -4.8290747665e+01 -1.8302961759e+02 2.8263058836e+02 1.7301368989e+02 0.0000e+00 0.0000e+00
      -24  2    5    5    0    0 +1.4832868212e+01 -6.1718917409e+01 -1.2974428895e+02 1.6493690724e+02 7.9632682417e+01 0.0000e+00 0.0000e+00
        5  1    3    3  501    0 -5.9391935608e+01 -1.0948480888e+02 +2.6074901232e+01 1.2734329925e+02 4.7000000000e+00 0.0000e+00 -1.0000e+00
      -13  1    4    4    0    0 -8.1340939920e+00 -9.4298933711e+00 +4.6090451263e+01 4.7743230637e+01 0.0000000000e+00 0.0000e+00 1.0000e+00
       14  1    4    4    0    0 -6.6715970334e+01 +2.8465227626e+01 -2.7444107024e-01 7.2535268658e+01 0.0000000000e+00 0.0000e+00 -1.0000e+00
       -5  1    5    5    0  503 +1.0397148929e+02 +1.3428169745e+01 -5.3285328645e+01 1.1769368113e+02 4.7000000000e+00 0.0000e+00 1.0000e+00
       13  1    6    6    0    0 -2.0571058301e+00 +1.4629546792e+01 -1.6546028971e+00 1.4865834470e+01 0.0000000000e+00 0.0000e+00 -1.0000e+00
      -14  1    6    6    0    0 +1.6889974042e+01 -7.6348464202e+01 -1.2808968605e+02 1.5007107277e+02 0.0000000000e+00 0.0000e+00 1.0000e+00
       21  1    1    2  504  502 -1.7825075085e+01 -9.3732151038e+00 -8.0647478907e+00 2.1694022718e+01 0.0000000000e+00 0.0000e+00 1.0000e+00
        4  1    1    2  502    0 +3.3262717517e+01 +1.4811343739e+02 +5.5950470033e+02 5.7973227304e+02 0.0000000000e+00 0.0000e+00 1.0000e+00
<mgrwt>
<rscale>  4 0.20818462E+03</rscale>
<asrwt>0</asrwt>
<pdfrwt beam="2">  1       21 0.53182880E-01 0.20819212E+03</pdfrwt>
<pdfrwt beam="1">  1        4 0.12092153E+00 0.20819212E+03</pdfrwt>
<totfact> 0.76286269E+01</totfact>
</mgrwt>
</event>
<event>
12      1 +1.4674046e+01 2.01411000e+02 7.54677100e-03 1.14877200e-01
       21 -1    0    0  503  502 +0.0000000000e+00 +0.0000000000e+00 +2.4570171036e+02 2.4570171036e+02 0.0000000000e+00 0.0000e+00 -1.0000e+00
       21 -1    0    0  501  503 -0.0000000000e+00 -0.0000000000e+00 -1.6591719226e+02 1.6591719226e+02 0.0000000000e+00 0.0000e+00 -1.0000e+00
        6  2    1    2  501    0 +4.2622918224e+01 +9.2615739405e+01 +1.9384515222e+01 2.0234165809e+02 1.7370088896e+02 0.0000e+00 0.0000e+00
       24  2    3    3    0    0 -3.4274261505e+01 +2.2301491076e+01 +5.7730651810e+01 9.1212067257e+01 5.7573705360e+01 0.0000e+00 0.0000e+00
       -6  2    1    2    0  502 -4.2622918224e+01 -9.2615739405e+01 +6.0400002882e+01 2.0927724452e+02 1.7249468509e+02 0.0000e+00 0.0000e+00
      -24  2    5    5    0    0 +3.6918427027e+01 -2.0040726035e+01 +9.2132618821e+00 8.9961987225e+01 7.9016922219e+01 0.0000e+00 0.0000e+00
        5  1    3    3  501    0 +7.6897179729e+01 +7.0314248329e+01 -3.8346136589e+01 1.1112959084e+02 4.7000000000e+00 0.0000e+00 -1.0000e+00
      -13  1    4    4    0    0 -2.3755326820e+01 +3.0048346013e+01 +6.5597748168e+01 7.5962380263e+01 0.0000000000e+00 0.0000e+00 1.0000e+00
       14  1    4    4    0    0 -1.0518934685e+01 -7.7468549369e+00 -7.8670963579e+00 1.5249686994e+01 0.0000000000e+00 0.0000e+00 -1.0000e+00
       -5  1    5    5    0  502 -7.9541345251e+01 -7.2575013370e+01 +5.1186741000e+01 1.1931525730e+02 4.7000000000e+00 0.0000e+00 1.0000e+00
       13  1    6    6    0    0 -1.9575011782e+01 -2.5872893492e+01 +6.6005798473e+00 3.3108237014e+01 0.0000000000e+00 0.0000e+00 -1.0000e+00
      -14  1    6    6    0    0 +5.6493438808e+01 +5.8321674569e+00 +2.6126820348e+00 5.6853750211e+01 0.0000000000e+00 0.0000e+00 1.0000e+00
<mgrwt>
<rscale>  2 0.20115066E+03</rscale>
<asrwt>0</asrwt>
<pdfrwt beam="1">  1       21 0.37800263E-01 0.20141099E+03</pdfrwt>
<pdfrwt beam="2">  1       21 0.25525722E-01 0.20141099E+03</pdfrwt>
<totfact> 0.97898897E+04</totfact>
</mgrwt>
</event>
<event>
13      2 +1.4674046e+01 1.94455100e+02 7.54677100e-03 1.15591100e-01
       21 -1    0    0  503  502 +0.0000000000e+00 +0.0000000000e+00 +7.5831623745e+01 7.5831623745e+01 0.0000000000e+00 0.0000e+00 -1.0000e+00
       21 -1    0    0  504  503 -0.0000000000e+00 -0.0000000000e+00 -6.5600206477e+02 6.5600206477e+02 0.0000000000e+00 0.0000e+00 -1.0000e+00
        6  2    1    2  504    0 +1.1847618035e+01 -7.2568198413e+01 -9.8432785430e+01 2.1233011247e+02 1.7317203567e+02 0.0000e+00 0.0000e+00
       24  2    3    3    0    0 +4.7753570026e+00 -3.7502376443e+01 -1.5449672093e+01 9.0623947850e+01 8.0899785431e+01 0.0000e+00 0.0000e+00
       -6  2    1    2    0  502 -1.1847618035e+01 +7.2568198413e+01 -4.8173765560e+02 5.1950357605e+02 1.8001746369e+02 0.0000e+00 0.0000e+00
      -24  2    5    5    0    0 +5.1087542757e+01 +7.4031989199e+01 -2.4765136734e+02 2.7705470000e+02 8.5658826728e+01 0.0000e+00 0.0000e+00
        5  1    3    3  501    0 +1.2552013389e+01 +3.3891729154e+00 +1.2491440917e+01 1.8632381204e+01 4.7000000000e+00 0.0000e+00 -1.0000e+00
      -13  1    4    4    0    0 -3.6254721440e+01 -9.1562007375e+00 -1.6193433132e+01 4.0748841889e+01 0.0000000000e+00 0.0000e+00 1.0000e+00
       14  1    4    4    0    0 +4.1030078443e+01 -2.8346175706e+01 +7.4376103868e-01 4.9875105961e+01 0.0000000000e+00 0.0000e+00 -1.0000e+00
       -5  1    5    5    0  502 -6.2935160792e+01 -1.4637907854e+00 -2.3408628826e+02 2.4244887605e+02 4.7000000000e+00 0.0000e+00 1.0000e+00
       13  1    6    6    0    0 -1.2462781262e+01 +5.3826215506e+01 -8.6357899365e+01 1.0251960386e+02 0.0000000000e+00 0.0000e+00 -1.0000e+00
      -14  1    6    6    0    0 +6.3550324020e+01 +2.0205773693e+01 -1.6129346797e+02 1.7453509614e+02 0.0000000000e+00 0.0000e+00 1.0000e+00
       21  1    3    3  504  501 -5.4797523562e+00 -3.8454994885e+01 -9.5474554253e+01 1.0307378341e+02 0.0000000000e+00 0.0000e+00 -1.0000e+00
<mgrwt>
<rscale>  3 0.19285566E+03</rscale>
<asrwt>0</asrwt>
<pdfrwt beam="1">  1       21 0.11666403E-01 0.19445513E+03</pdfrwt>
<pdfrwt beam="2">  1       21 0.10092340E+00 0.19445513E+03</pdfrwt>
<totfact> 0.49525669E+04</totfact>
</mgrwt>
</event>
<event>
13      2 +1.4674046e+01 2.83514600e+02 7.54677100e-03 1.09386100e-01
       21 -1    0    0  503  502 +0.0000000000e+00 +0.0000000000e+00 +7.3265843042e+02 7.3265843042e+02 0.0000000000e+00 0.0000e+00 -1.0000e+00
       21 -1    0    0  504  503 -0.0000000000e+00 -0.0000000000e+00 -1.2576936640e+02 1.2576936640e+02 0.0000000000e+00 0.0000e+00 1.0000e+00
        6  2    1    2  501    0 +1.2098854187e+02 -1.9319241892e+02 +2.3941362816e+02 3.7397760983e+02 1.7486803398e+02 0.0000e+00 0.0000e+00
       24  2    3    3    0    0 +1.3516324426e+02 -1.8865641637e+02 +2.5347608660e+02 3.5296951034e+02 8.0479828025e+01 0.0000e+00 0.0000e+00
       -6  2    1    2    0  502 -1.3378402338e+02 +1.7260862430e+02 +2.8696976120e+02 4.0037533582e+02 1.7394500164e+02 0.0000e+00 0.0000e+00
      -24  2    5    5    0    0 -1.3061973720e+02 +1.9773446023e+02 +2.7502183559e+02 3.7198232145e+02 8.1076537393e+01 0.0000e+00 0.0000e+00
        5  1    3    3  501    0 -1.4174702390e+01 -4.5360025564e+00 -1.4062458431e+01 2.1008099489e+01 4.7000000000e+00 0.0000e+00 -1.0000e+00
      -13  1    4    4    0    0 +1.2469638962e+02 -1.9583340712e+02 +2.3329681990e+02 3.2913115791e+02 0.0000000000e+00 0.0000e+00 1.0000e+00
       14  1    4    4    0    0 +1.0466854646e+01 +7.1769907565e+00 +2.0179266693e+01 2.3838352434e+01 0.0000000000e+00 0.0000e+00 -1.0000e+00
       -5  1    5    5    0  502 -3.1642861759e+00 -2.5125835929e+01 +1.1947925611e+01 2.8393014362e+01 4.7000000000e+00 0.0000e+00 1.0000e+00
       13  1    6    6    0    0 -1.1096003369e+02 +2.0172396110e+02 +2.5664195695e+02 3.4477496955e+02 0.0000000000e+00 0.0000e+00 -1.0000e+00
      -14  1    6    6    0    0 -1.9659703512e+01 -3.9895008634e+00 +1.8379878633e+01 2.7207351909e+01 0.0000000000e+00 0.0000e+00 1.0000e+00
       21  1    1    2  504  501 +1.2795481505e+01 +2.0583794620e+01 +8.0505674660e+01 8.4074851177e+01 0.0000000000e+00 0.0000e+00 -1.0000e+00
<mgrwt>
<rscale>  3 0.28337243E+03</rscale>
<asrwt>0</asrwt>
<pdfrwt beam="1">  1       21 0.11271668E+00 0.28351463E+03</pdfrwt>
<pdfrwt beam="2">  1       21 0.19349134E-01 0.28351463E+03</pdfrwt>
<totfact> 0.14353677E+04</totfact>
</mgrwt>
</event>
<event>
14      3 +1.4674046e+01 2.07457300e+02 7.54677100e-03 1.14372100e-01
       21 -1    0    0  504  502 +0.0000000000e+00 +0.0000000000e+00 +7.0893516220e+02 7.0893516220e+02 0.0000000000e+00 0.0000e+00 -1.0000e+00
       21 -1    0    0  502  503 -0.0000000000e+00 -0.0000000000e+00 -1.6936547967e+02 1.6936547967e+02 0.0000000000e+00 0.0000e+00 1.0000e+00
       -6  2    1    2    0  503 +2.5827941696e+01 +1.0462525339e+02 -3.1872046414e+01 2.0558118193e+02 1.7214606822e+02 0.0000e+00 0.0000e+00
      -24  2    3    3    0    0 +6.0401977239e+01 +1.4070814102e+01 -3.9363734067e+01 1.0824832113e+02 7.9509803192e+01 0.0000e+00 0.0000e+00
        6  2    1    2  505    0 -1.9568708799e+01 -1.3257826814e+02 +1.8866419603e+02 2.8887158807e+02 1.7289500855e+02 0.0000e+00 0.0000e+00
       24  2    5    5    0    0 +2.2984908154e+01 -1.2322527795e+02 +1.7556973604e+02 2.3014036029e+02 8.0169059460e+01 0.0000e+00 0.0000e+00
        5  1    5    5  501    0 -6.6592633899e+00 -9.8270593881e+00 -9.8518039473e+00 1.6126528645e+01 4.7000000000e+00 0.0000e+00 -1.0000e+00
      -13  1    6    6    0    0 +2.7707649393e+00 -4.5028353358e+01 +1.0423995395e+01 4.6302153562e+01 0.0000000000e+00 0.0000e+00 1.0000e+00
       14  1    6    6    0    0 +2.0214143215e+01 -7.8196924590e+01 +1.6514574064e+02 1.8383820673e+02 0.0000000000e+00 0.0000e+00 -1.0000e+00
       -5  1    3    3    0  503 -3.4574035543e+01 +9.0554439286e+01 +7.4916876537e+00 9.7332860803e+01 4.7000000000e+00 0.0000e+00 1.0000e+00
       13  1    4    4    0    0 -1.1233173269e+01 +2.3589092660e+01 -3.6011882053e-01 2.6129660537e+01 0.0000000000e+00 0.0000e+00 -1.0000e+00
      -14  1    4    4    0    0 +7.1635150508e+01 -9.5182785585e+00 -3.9003615247e+01 8.2118660592e+01 0.0000000000e+00 0.0000e+00 1.0000e+00
       21  1    1    2  504  505 -6.2592328970e+00 +2.7953014757e+01 +3.8277753292e+02 3.8384787187e+02 0.0000000000e+00 0.0000e+00 -1.0000e+00
       21  1    5    5  505  501 -3.5894353563e+01 +4.7406919087e-01 +2.2946263939e+01 4.2604699131e+01 0.0000000000e+00 0.0000e+00 -1.0000e+00
<mgrwt>
<rscale>  4 0.20730117E+03</rscale>
<asrwt>0</asrwt>
<pdfrwt beam="1">  1       21 0.10906695E+00 0.20745728E+03</pdfrwt>
<pdfrwt beam="2">  1       21 0.26056228E-01 0.20745728E+03</pdfrwt>
<totfact> 0.92312534E+03</totfact>
</mgrwt>
</event>
<event>
12      1 +1.4674046e+01 2.50848600e+02 7.54677100e-03 1.11304800e-01
       21 -1    0    0  501  502 +0.0000000000e+00 +0.0000000000e+00 +3.9149157041e+02 3.9149157041e+02 0.0000000000e+00 0.0000e+00 1.0000e+00
       21 -1    0    0  502  503 -0.0000000000e+00 -0.0000000000e+00 -3.4903616113e+02 3.4903616113e+02 0.0000000000e+00 0.0000e+00 1.0000e+00
       -6  2    1    2    0  503 -6.8847774573e+01 -1.6689519133e+02 -2.5150994990e+02 3.5522141326e+02 1.7415790706e+02 0.0000e+00 0.0000e+00
      -24  2    3    3    0    0 -9.1454304325e+01 -1.7637357675e+02 -2.5161295910e+02 3.3026153369e+02 7.9322576160e+01 0.0000e+00 0.0000e+00
        6  2    1    2  501    0 +6.8847774573e+01 +1.6689519133e+02 +2.9396535918e+02 3.8530631827e+02 1.7161382681e+02 0.0000e+00 0.0000e+00
       24  2    5    5    0    0 +8.9170757626e+01 +1.3817449953e+02 +2.9940658708e+02 3.4939533473e+02 7.3411029232e+01 0.0000e+00 0.0000e+00
        5  1    5    5  501    0 -2.0322983053e+01 +2.8720691803e+01 -5.4412278985e+00 3.5910983541e+01 4.7000000000e+00 0.0000e+00 -1.0000e+00
      -13  1    6    6    0    0 +4.5217238574e+01 +2.1486180916e+01 +5.1086764278e+01 7.1527002726e+01 0.0000000000e+00 0.0000e+00 1.0000e+00
       14  1    6    6    0    0 +4.3953519053e+01 +1.1668831861e+02 +2.4831982280e+02 2.7786833201e+02 0.0000000000e+00 0.0000e+00 -1.0000e+00
       -5  1    3    3    0  503 +2.2606529752e+01 +9.4783854231e+00 +1.0300920390e-01 2.4959879578e+01 4.7000000000e+00 0.0000e+00 1.0000e+00
       13  1    4    4    0    0 -2.7852517626e+01 -1.7758021998e+01 -1.0367401352e+01 3.4620703259e+01 0.0000000000e+00 0.0000e+00 -1.0000e+00
      -14  1    4    4    0    0 -6.3601786700e+01 -1.5861555476e+02 -2.4124555775e+02 2.9564083043e+02 0.0000000000e+00 0.0000e+00 1.0000e+00
<mgrwt>
<rscale>  2 0.25040750E+03</rscale>
<asrwt>0</asrwt>
<pdfrwt beam="1">  1       21 0.60229472E-01 0.25084855E+03</pdfrwt>
<pdfrwt beam="2">  1       21 0.53697871E-01 0.25084855E+03</pdfrwt>
<totfact> 0.81218059E+03</totfact>
</mgrwt>
</event>
<event>
12      1 +1.4674046e+01 2.40767800e+02 7.54677100e-03 1.11931300e-01
       21 -1    0    0  501  502 +0.0000000000e+00 +0.0000000000e+00 +1.1590518925e+02 1.1590518925e+02 0.0000000000e+00 0.0000e+00 1.0000e+00
       21 -1    0    0  502  503 -0.0000000000e+00 -0.0000000000e+00 -5.0032598037e+02 5.0032598037e+02 0.0000000000e+00 0.0000e+00 1.0000e+00
       -6  2    1    2    0  503 +6.3733519983e+01 +1.5466412139e+02 -1.8193800001e+02 3.0177900011e+02 1.7316517272e+02 0.0000e+00 0.0000e+00
      -24  2    3    3    0    0 +4.1508651813e+01 -1.2091929238e+01 -4.5829063310e+01 8.5332106307e+01 5.7550694130e+01 0.0000e+00 0.0000e+00
        6  2    1    2  501    0 -6.3733519983e+01 -1.5466412139e+02 -2.0248279112e+02 3.1445216951e+02 1.7291019114e+02 0.0000e+00 0.0000e+00
       24  2    5    5    0    0 -1.0269660585e+02 -1.5054242142e+02 -1.5048671338e+02 2.4917742270e+02 7.8952666711e+01 0.0000e+00 0.0000e+00
        5  1    5    5  501    0 +3.8963085871e+01 -4.1216999742e+00 -5.1996077738e+01 6.5274746812e+01 4.7000000000e+00 0.0000e+00 -1.0000e+00
      -13  1    6    6    0    0 -5.8401335480e+01 -1.4134867224e+02 -1.0911297372e+02 1.8787177586e+02 0.0000000000e+00 0.0000e+00 1.0000e+00
       14  1    6    6    0    0 -4.4295270374e+01 -9.1937491748e+00 -4.1373739663e+01 6.1305646846e+01 0.0000000000e+00 0.0000e+00 -1.0000e+00
       -5  1    3    3    0  503 +2.2224868169e+01 +1.6675605063e+02 -1.3610893670e+02 2.1644689380e+02 4.7000000000e+00 0.0000e+00 1.0000e+00
       13  1    4    4    0    0 -1.3642769287e+01 -3.0496058103e+00 -1.8309956961e+01 2.3036487868e+01 0.0000000000e+00 0.0000e+00 -1.0000e+00
      -14  1    4    4    0    0 +5.5151421100e+01 -9.0423234272e+00 -2.7519106349e+01 6.2295618438e+01 0.0000000000e+00 0.0000e+00 1.0000e+00
<mgrwt>
<rscale>  2 0.24072195E+03</rscale>
<asrwt>0</asrwt>
<pdfrwt beam="1">  1       21 0.17831568E-01 0.24076779E+03</pdfrwt>
<pdfrwt beam="2">  1       21 0.76973227E-01 0.24076779E+03</pdfrwt>
<totfact> 0.41873242E+04</totfact>
</mgrwt>
</event>
<event>
14      3 +1.4674046e+01 1.76155400e+02 7.54677100e-03 1.17226000e-01
       21 -1    0    0  501  502 +0.0000000000e+00 +0.0000000000e+00 +7.1862351908e+02 7.1862351908e+02 0.0000000000e+00 0.0000e+00 -1.0000e+00
       21 -1    0    0  504  503 -0.0000000000e+00 -0.0000000000e+00 -3.2454420818e+02 3.2454420818e+02 0.0000000000e+00 0.0000e+00 -1.0000e+00
       -6  2    1    2    0  505 -6.6221814555e+01 -9.8907913395e+01 +2.4742052805e+02 3.2440706655e+02 1.7278577219e+02 0.0000e+00 0.0000e+00
      -24  2    3    3    0    0 +1.2519390220e+01 -7.5481336547e-01 +1.2337985182e+02 1.4765190330e+02 8.0132339539e+01 0.0000e+00 0.0000e+00
        6  2    1    2  501    0 -7.0798981350e+01 -7.1837020156e+01 -9.1276607739e+01 2.1773309603e+02 1.7000949610e+02 0.0000e+00 0.0000e+00
       24  2    5    5    0    0 -7.7741729753e+01 -3.4083737103e+01 -1.2059084019e+02 1.6920551253e+02 8.2963106574e+01 0.0000e+00 0.0000e+00
        5  1    5    5  501    0 +6.9427484029e+00 -3.7753283053e+01 +2.9314232450e+01 4.8527583505e+01 4.7000000000e+00 0.0000e+00 -1.0000e+00
      -13  1    6    6    0    0 -6.4795862628e+01 -5.8685891278e+01 -7.2130902881e+01 1.1333757011e+02 0.0000000000e+00 0.0000e+00 1.0000e+00
       14  1    6    6    0    0 -1.2945867124e+01 +2.4602154175e+01 -4.8459937308e+01 5.5867942414e+01 0.0000000000e+00 0.0000e+00 -1.0000e+00
       -5  1    3    3    0  505 -7.8741204775e+01 -9.8153100029e+01 +1.2404067624e+02 1.7675516325e+02 4.7000000000e+00 0.0000e+00 1.0000e+00
       13  1    4    4    0    0 -3.4219659818e+01 +1.3468588565e+00 +4.9014545173e+01 5.9793183435e+01 0.0000000000e+00 0.0000e+00 -1.0000e+00
      -14  1    4    4    0    0 +4.6739050037e+01 -2.1016722219e+00 +7.4365306643e+01 8.7858719867e+01 0.0000000000e+00 0.0000e+00 1.0000e+00
       21  1    1    2  504  502 +1.4827790563e+01 +8.8197839387e+01 +3.2000350400e+02 3.3226640639e+02 0.0000000000e+00 0.0000e+00 -1.0000e+00
       21  1    1    2  505  503 +1.2219300534e+02 +8.2547094163e+01 -8.2068113410e+01 1.6876115829e+02 0.0000000000e+00 0.0000e+00 -1.0000e+00
<mgrwt>
<rscale>  4 0.17547088E+03</rscale>
<asrwt>0</asrwt>
<pdfrwt beam="1">  1       21 0.11055746E+00 0.17615544E+03</pdfrwt>
<pdfrwt beam="2">  1       21 0.49929878E-01 0.17615544E+03</pdfrwt>
<totfact> 0.25031765E+03</totfact>
</mgrwt>
</event>
<event>
13      2 +1.4674046e+01 1.86909600e+02 7.54677100e-03 1.16147100e-01
       21 -1    0    0  503  502 +0.0000000000e+00 +0.0000000000e+00 +8.9130914656e+02 8.9130914656e+02 0.0000000000e+00 0.0000e+00 1.0000e+00
       21 -1    0    0  504  503 -0.0000000000e+00 -0.0000000000e+00 -1.0334261972e+02 1.0334261972e+02 0.0000000000e+00 0.0000e+00 1.0000e+00
        6  2    1    2  501    0 -5.2232134170e+01 -6.0194521570e+01 +3.6505427308e+02 4.1199300464e+02 1.7355701459e+02 0.0000e+00 0.0000e+00
       24  2    3    3    0    0 -1.0181809511e+02 -3.2806348936e+01 +2.5749606296e+02 2.9033883049e+02 8.0927331792e+01 0.0000e+00 0.0000e+00
       -6  2    1    2    0  502 -9.2122279449e+01 +7.6927795238e+01 +3.7448444831e+02 4.2948091886e+02 1.7265821032e+02 0.0000e+00 0.0000e+00
      -24  2    5    5    0    0 -8.0402344232e+01 +1.1892194877e+02 +3.1050279965e+02 3.5191412714e+02 8.2611121743e+01 0.0000e+00 0.0000e+00
        5  1    3    3  501    0 +4.9585960942e+01 -2.7388172634e+01 +1.0755821012e+02 1.2165417415e+02 4.7000000000e+00 0.0000e+00 -1.0000e+00
      -13  1    4    4    0    0 -4.8514232180e+01 -1.3546968234e+01 +3.6535699169e+01 6.2225464130e+01 0.0000000000e+00 0.0000e+00 1.0000e+00
       14  1    4    4    0    0 -5.3303862931e+01 -1.9259380702e+01 +2.2096036379e+02 2.2811336636e+02 0.0000000000e+00 0.0000e+00 -1.0000e+00
       -5  1    5    5    0  502 -1.1719935217e+01 -4.1994153531e+01 +6.3981648660e+01 7.7566791719e+01 4.7000000000e+00 0.0000e+00 1.0000e+00
       13  1    6    6    0    0 -4.8606660398e+01 +6.2496306427e+01 +8.0274877846e+01 1.1274950894e+02 0.0000000000e+00 0.0000e+00 -1.0000e+00
      -14  1    6    6    0    0 -3.1795683834e+01 +5.6425642342e+01 +2.3022792180e+02 2.3916461821e+02 0.0000000000e+00 0.0000e+00 1.0000e+00
       21  1    1    2  504  501 +1.4435441362e+02 -1.6733273668e+01 +4.8427805446e+01 1.5317784278e+02 0.0000000000e+00 0.0000e+00 1.0000e+00
<mgrwt>
<rscale>  3 0.18670064E+03</rscale>
<asrwt>0</asrwt>
<pdfrwt beam="1">  1       21 0.13712448E+00 0.18690957E+03</pdfrwt>
<pdfrwt beam="2">  1       21 0.15898865E-01 0.18690957E+03</pdfrwt>
<totfact> 0.13369997E+04</totfact>
</mgrwt>
</event>
<event>
13      3 +1.4674046e+01 5.50119000e+02 7.54677100e-03 1.02865300e-01
        2 -1    0    0  501    0 +0.0000000000e+00 +0.0000000000e+00 +8.3902133810e+02 8.3902133810e+02 0.0000000000e+00 0.0000e+00 -1.0000e+00
        2 -1    0    0  502    0 -0.0000000000e+00 -0.0000000000e+00 -9.3752745990e+02 9.3752745990e+02 0.0000000000e+00 0.0000e+00 -1.0000e+00
      -24  2    1    2    0    0 -8.7645284617e+01 -1.4144773796e+02 +3.3683934943e+02 3.8429114598e+02 8.0807048350e+01 0.0000e+00 0.0000e+00
        6  2    1    2  501    0 +1.0713644878e+02 +1.1761419480e+02 -2.6580009872e+01 2.3443859080e+02 1.7012829999e+02 0.0000e+00 0.0000e+00
       24  2    4    4    0    0 +2.6915858090e+01 +1.2223191836e+02 +2.8322914462e+00 1.4874238312e+02 8.0319171938e+01 0.0000e+00 0.0000e+00
        5  1    4    4  501    0 +8.0220590686e+01 -4.6177235606e+00 -2.9412301319e+01 8.5696207674e+01 4.7000000000e+00 0.0000e+00 -1.0000e+00
      -13  1    5    5    0    0 -1.2060170384e+01 -4.6644578560e+00 +9.1567756354e+00 1.5844602135e+01 0.0000000000e+00 0.0000e+00 1.0000e+00
       14  1    5    5    0    0 +3.8976028474e+01 +1.2689637621e+02 -6.3244841892e+00 1.3289778099e+02 0.0000000000e+00 0.0000e+00 -1.0000e+00
       -5  1    1    2    0  503 -3.4338889221e+01 -9.9596325650e+00 -1.8988002382e+02 1.9327407234e+02 4.7000000000e+00 0.0000e+00 1.0000e+00
       13  1    3    3    0    0 -1.1990111508e+01 +4.2764967665e+00 +6.8736920578e+01 6.9905761201e+01 0.0000000000e+00 0.0000e+00 -1.0000e+00
      -14  1    3    3    0    0 -7.5655173109e+01 -1.4572423473e+02 +2.6810242886e+02 3.1438538478e+02 0.0000000000e+00 0.0000e+00 1.0000e+00
        2  1    1    2  502    0 -5.0199876779e+00 +3.7464730500e+01 +3.7169850210e+02 3.7361555477e+02 0.0000000000e+00 0.0000e+00 -1.0000e+00
        2  1    1    2  503    0 +1.9867712741e+01 -3.6715547674e+00 -5.9058393964e+02 5.9092943410e+02 0.0000000000e+00 0.0000e+00 -1.0000e+00
<mgrwt>
<rscale>  4 0.44689055E+03</rscale>
<asrwt>0</asrwt>
<pdfrwt beam="1">  1        2 0.12908021E+00 0.55011903E+03</pdfrwt>
<pdfrwt beam="2">  1        2 0.14423499E+00 0.55011903E+03</pdfrwt>
<totfact> 0.14136312E+02</totfact>
</mgrwt>
</event>
<event>
13      2 +1.4674046e+01 1.96779900e+02 7.54677100e-03 1.15292800e-01
       21 -1    0    0  504  502 +0.0000000000e+00 +0.0000000000e+00 +9.8326352782e+01 9.8326352782e+01 0.0000000000e+00 0.0000e+00 -1.0000e+00
       21 -1    0    0  501  503 -0.0000000000e+00 -0.0000000000e+00 -6.1547073887e+02 6.1547073887e+02 0.0000000000e+00 0.0000e+00 1.0000e+00
        6  2    1    2  501    0 +1.1237906263e+02 -2.2167082549e+01 -1.1407230180e+02 2.3563561901e+02 1.7143868187e+02 0.0000e+00 0.0000e+00
       24  2    3    3    0    0 +5.9050942246e+01 +5.4412156736e+01 -6.3992198949e+01 1.2962441670e+02 7.9118842870e+01 0.0000e+00 0.0000e+00
       -6  2    1    2    0  502 -6.6612426457e+01 +5.6034737347e+01 -3.4994311176e+02 4.0028791648e+02 1.7376169734e+02 0.0000e+00 0.0000e+00
      -24  2    5    5    0    0 +1.0668670689e+01 +5.8695924065e+01 -1.1232946451e+02 1.5036435767e+02 8.0202864180e+01 0.0000e+00 0.0000e+00
        5  1    3    3  501    0 +5.3328120387e+01 -7.6579239285e+01 -5.0080102853e+01 1.0601120231e+02 4.7000000000e+00 0.0000e+00 -1.0000e+00
      -13  1    4    4    0    0 +2.6715701160e+01 +9.5548757571e+00 -6.8500507401e+01 7.4144074972e+01 0.0000000000e+00 0.0000e+00 1.0000e+00
       14  1    4    4    0    0 +3.2335241085e+01 +4.4857280979e+01 +4.5083084524e+00 5.5480341726e+01 0.0000000000e+00 0.0000e+00 -1.0000e+00
       -5  1    5    5    0  502 -7.7281097146e+01 -2.6611867184e+00 -2.3761364725e+02 2.4992355881e+02 4.7000000000e+00 0.0000e+00 1.0000e+00
       13  1    6    6    0    0 -2.1720315842e+01 -7.3973742286e+00 -1.1888966102e+01 2.5842615594e+01 0.0000000000e+00 0.0000e+00 -1.0000e+00
      -14  1    6    6    0    0 +3.2388986531e+01 +6.6093298294e+01 -1.0044049841e+02 1.2452174207e+02 0.0000000000e+00 0.0000e+00 1.0000e+00
       21  1    1    2  504  503 -4.5766636175e+01 -3.3867654798e+01 -5.3128972527e+01 7.7873556168e+01 0.0000000000e+00 0.0000e+00 -1.0000e+00
<mgrwt>
<rscale>  3 0.19626585E+03</rscale>
<asrwt>0</asrwt>
<pdfrwt beam="1">  1       21 0.15127131E-01 0.19677991E+03</pdfrwt>
<pdfrwt beam="2">  1       21 0.94687805E-01 0.19677991E+03</pdfrwt>
<totfact> 0.35980440E+04</totfact>
</mgrwt>
</event>
<event>
12      1 +1.4674046e+01 2.69804200e+02 7.54677100e-03 1.10143900e-01
       21 -1    0    0  501  502 +0.0000000000e+00 +0.0000000000e+00 +1.5135574411e+02 1.5135574411e+02 0.0000000000e+00 0.0000e+00 1.0000e+00
       21 -1    0    0  502  503 -0.0000000000e+00 -0.0000000000e+00 -4.8933594204e+02 4.8933594204e+02 0.0000000000e+00 0.0000e+00 -1.0000e+00
       -6  2    1    2    0  503 +1.1121034461e+02 -1.7469186608e+02 -1.2571603908e+02 2.9765557339e+02 1.7294313823e+02 0.0000e+00 0.0000e+00
      -24  2    3    3    0    0 -1.6489326688e+00 -1.1434870721e+02 -4.9590312155e+01 1.4867326037e+02 8.1032052122e+01 0.0000e+00 0.0000e+00
        6  2    1    2  501    0 -1.1121034461e+02 +1.7469186608e+02 -2.1226415885e+02 3.4303611276e+02 1.7243176246e+02 0.0000e+00 0.0000e+00
       24  2    5    5    0    0 -6.5881624247e+01 +1.8112796754e+01 -5.5991418550e+01 1.1717120358e+02 7.6977855106e+01 0.0000e+00 0.0000e+00
        5  1    5    5  501    0 -4.5328720364e+01 +1.5657906933e+02 -1.5627274030e+02 2.2586490918e+02 4.7000000000e+00 0.0000e+00 -1.0000e+00
      -13  1    6    6    0    0 -3.3114852934e+01 -5.8122343614e+00 +1.3880937383e+01 3.6373836417e+01 0.0000000000e+00 0.0000e+00 1.0000e+00
       14  1    6    6    0    0 -3.2766771313e+01 +2.3925031115e+01 -6.9872355934e+01 8.0797367159e+01 0.0000000000e+00 0.0000e+00 -1.0000e+00
       -5  1    3    3    0  503 +1.1285927728e+02 -6.0343158871e+01 -7.6125726927e+01 1.4898231301e+02 4.7000000000e+00 0.0000e+00 1.0000e+00
       13  1    4    4    0    0 -1.0907931402e+01 -4.7246220262e+01 -6.3122317776e+01 7.9596578431e+01 0.0000000000e+00 0.0000e+00 -1.0000e+00
      -14  1    4    4    0    0 +9.2589987328e+00 -6.7102486947e+01 +1.3532005621e+01 6.9076681943e+01 0.0000000000e+00 0.0000e+00 1.0000e+00
<mgrwt>
<rscale>  2 0.26972231E+03</rscale>
<asrwt>0</asrwt>
<pdfrwt beam="1">  1       21 0.23285499E-01 0.26980422E+03</pdfrwt>
<pdfrwt beam="2">  1       21 0.75282452E-01 0.26980422E+03</pdfrwt>
<totfact> 0.26301117E+04</totfact>
</mgrwt>
</event>
<event>
13      2 +1.4674046e+01 1.86709500e+02 7.54677100e-03 1.16171900e-01
       21 -1    0    0  502  503 +0.0000000000e+00 +0.0000000000e+00 +5.8559166554e+02 5.8559166554e+02 0.0000000000e+00 0.0000e+00 -1.0000e+00
        1 -1    0    0  501    0 -0.0000000000e+00 -0.0000000000e+00 -1.2235562530e+03 1.2235562530e+03 0.0000000000e+00 0.0000e+00 1.0000e+00
        6  2    1    2  501    0 +3.2071458474e+01 +3.8048600855e+01 +1.4473292137e+02 2.3092769003e+02 1.7292687767e+02 0.0000e+00 0.0000e+00
       24  2    3    3    0    0 +6.7184977846e+01 +2.2717011550e+01 +1.5742552958e+02 1.9029261680e+02 7.9991241923e+01 0.0000e+00 0.0000e+00
       -6  2    1    2    0  503 -4.7839553917e+01 -6.5772227336e+01 +3.7483530106e+02 4.2024810524e+02 1.7173339287e+02 0.0000e+00 0.0000e+00
      -24  2    5    5    0    0 -1.0521270013e+01 -9.0694993279e+00 +3.2811994533e+02 3.3771163973e+02 7.8698793802e+01 0.0000e+00 0.0000e+00
        5  1    3    3  501    0 -3.5113519372e+01 +1.5331589305e+01 -1.2692608210e+01 4.0635073231e+01 4.7000000000e+00 0.0000e+00 -1.0000e+00
      -13  1    4    4    0    0 -1.3742262332e+01 -8.0747546878e+00 +4.9050902461e+01 5.1575599556e+01 0.0000000000e+00 0.0000e+00 1.0000e+00
       14  1    4    4    0    0 +8.0927240178e+01 +3.0791766237e+01 +1.0837462712e+02 1.3871701725e+02 0.0000000000e+00 0.0000e+00 -1.0000e+00
       -5  1    5    5    0  503 -3.7318283904e+01 -5.6702728008e+01 +4.6715355724e+01 8.2536465502e+01 4.7000000000e+00 0.0000e+00 1.0000e+00
       13  1    6    6    0    0 -1.1039431596e+01 -3.1372930392e+01 +5.9479756674e+01 6.8146689320e+01 0.0000000000e+00 0.0000e+00 -1.0000e+00
      -14  1    6    6    0    0 +5.1816158312e-01 +2.2303431065e+01 +2.6864018866e+02 2.6956495041e+02 0.0000000000e+00 0.0000e+00 1.0000e+00
        1  1    1    2  502    0 +1.5768095443e+01 +2.7723626481e+01 -1.1575328099e+03 1.1579721233e+03 0.0000000000e+00 0.0000e+00 1.0000e+00
<mgrwt>
<rscale>  3 0.18643269E+03</rscale>
<asrwt>0</asrwt>
<pdfrwt beam="1">  1       21 0.90091025E-01 0.18670951E+03</pdfrwt>
<pdfrwt beam="2">  1        1 0.18823942E+00 0.18670951E+03</pdfrwt>
<totfact> 0.13124586E+02</totfact>
</mgrwt>
</event>
<event>
12      1 +1.4674046e+01 2.28928800e+02 7.54677100e-03 1.12820600e-01
       21 -1    0    0  501  502 +0.0000000000e+00 +0.0000000000e+00 +2.2950366380e+02 2.2950366380e+02 0.0000000000e+00 0.0000e+00 1.0000e+00
       21 -1    0    0  502  503 -0.0000000000e+00 -0.0000000000e+00 -3.4632119532e+02 3.4632119532e+02 0.0000000000e+00 0.0000e+00 -1.0000e+00
       -6  2    1    2    0  503 +8.9580222717e+01 -1.1200788699e+02 -2.2998401081e+02 3.2450120798e+02 1.7843207587e+02 0.0000e+00 0.0000e+00
      -24  2    3    3    0    0 +1.1795165681e+02 -6.7557544747e+01 -1.0654192966e+02 1.9018513076e+02 7.9640354046e+01 0.0000e+00 0.0000e+00
        6  2    1    2  501    0 -8.9580222717e+01 +1.1200788699e+02 +1.1316647930e+02 2.5132365114e+02 1.7258778212e+02 0.0000e+00 0.0000e+00
       24  2    5    5    0    0 +9.2434345542e+00 +3.9291758809e+01 +8.6422770039e+01 1.2566114075e+02 8.1807968561e+01 0.0000e+00 0.0000e+00
        5  1    5    5  501    0 -9.8823657271e+01 +7.2716128176e+01 +2.6743709256e+01 1.2566251039e+02 4.7000000000e+00 0.0000e+00 -1.0000e+00
      -13  1    6    6    0    0 +2.4997237155e+01 -1.5402443936e+01 +5.0317696238e+01 5.8257769433e+01 0.0000000000e+00 0.0000e+00 1.0000e+00
       14  1    6    6    0    0 -1.5753802601e+01 +5.4694202746e+01 +3.6105073801e+01 6.7403371314e+01 0.0000000000e+00 0.0000e+00 -1.0000e+00
       -5  1    3    3    0  503 -2.8371434092e+01 -4.4450342238e+01 -1.2344208116e+02 1.3431607721e+02 4.7000000000e+00 0.0000e+00 1.0000e+00
       13  1    4    4    0    0 +6.0959186915e+01 -3.5269997439e+01 -1.0275403649e+02 1.2457281888e+02 0.0000000000e+00 0.0000e+00 -1.0000e+00
      -14  1    4    4    0    0 +5.6992469894e+01 -3.2287547308e+01 -3.7878931622e+00 6.5612311881e+01 0.0000000000e+00 0.0000e+00 1.0000e+00
<mgrwt>
<rscale>  2 0.22778898E+03</rscale>
<asrwt>0</asrwt>
<pdfrwt beam="1">  1       21 0.35308256E-01 0.22892879E+03</pdfrwt>
<pdfrwt beam="2">  1       21 0.53280184E-01 0.22892879E+03</pdfrwt>
<totfact> 0.25290479E+04</totfact>
</mgrwt>
</event>
<event>
13      3 +1.4674046e+01 2.99730900e+02 7.54677100e-03 1.08728300e-01
       21 -1    0    0  505  502 +0.0000000000e+00 +0.0000000000e+00 +5.1656207923e+02 5.1656207923e+02 0.0000000000e+00 0.0000e+00 -1.0000e+00
       21 -1    0    0  501  503 -0.0000000000e+00 -0.0000000000e+00 -8.7107221973e+02 8.7107221973e+02 0.0000000000e+00 0.0000e+00 -1.0000e+00
       24  2    1    2    0    0 +1.0026179599e+02 -1.5077456678e+02 -1.5586156224e+02 2.5223506568e+02 8.0896872943e+01 0.0000e+00 0.0000e+00
       -6  2    1    2    0  504 -6.2283103192e+01 +2.0395429436e+02 -8.5485352080e+01 2.8752638235e+02 1.7287896343e+02 0.0000e+00 0.0000e+00
      -24  2    4    4    0    0 +8.3276617167e+00 +1.1542160632e+02 +1.1368498259e+01 1.3844024853e+02 7.5132965500e+01 0.0000e+00 0.0000e+00
        5  1    1    2  501    0 -2.4005450178e+01 -8.4319998499e+01 -2.3070870424e+02 2.4684958983e+02 4.7000000000e+00 0.0000e+00 -1.0000e+00
      -13  1    3    3    0    0 +3.2122771191e+01 -8.2471467773e+00 -4.5348354703e+00 3.3473162260e+01 0.0000000000e+00 0.0000e+00 1.0000e+00
       14  1    3    3    0    0 +6.8139024804e+01 -1.4252742000e+02 -1.5132672677e+02 2.1876190342e+02 0.0000000000e+00 0.0000e+00 -1.0000e+00
       -5  1    4    4    0  504 -7.0610764909e+01 +8.8532688035e+01 -9.6853850339e+01 1.4908613382e+02 4.7000000000e+00 0.0000e+00 1.0000e+00
       13  1    5    5    0    0 +3.5657196523e+01 +1.0082780330e+02 +7.3602007398e+00 1.0720006594e+02 0.0000000000e+00 0.0000e+00 -1.0000e+00
      -14  1    5    5    0    0 -2.7329534807e+01 +1.4593803022e+01 +4.0082975193e+00 3.1240182592e+01 0.0000000000e+00 0.0000e+00 1.0000e+00
       21  1    1    2  504  502 -2.9071822578e+01 -8.8705721731e-01 +3.5739385424e+02 3.5857541018e+02 0.0000000000e+00 0.0000e+00 -1.0000e+00
       21  1    1    2  505  503 +1.5098579954e+01 +3.2027328138e+01 -2.3984837618e+02 2.4244785093e+02 0.0000000000e+00 0.0000e+00 -1.0000e+00
<mgrwt>
<rscale>  4 0.29594926E+03</rscale>
<asrwt>0</asrwt>
<pdfrwt beam="1">  1       21 0.79471090E-01 0.29973089E+03</pdfrwt>
<pdfrwt beam="2">  1       21 0.13401111E+00 0.29973089E+03</pdfrwt>
<totfact> 0.50759262E+02</totfact>
</mgrwt>
</event>
<event>
14      3 +1.4674046e+01 2.11259900e+02 7.54677100e-03 1.14058100e-01
       21 -1    0    0  501  502 +0.0000000000e+00 +0.0000000000e+00 +4.0518183336e+02 4.0518183336e+02 0.0000000000e+00 0.0000e+00 1.0000e+00
       21 -1    0    0  502  503 -0.0000000000e+00 -0.0000000000e+00 -1.0007666064e+03 1.0007666064e+03 0.0000000000e+00 0.0000e+00 1.0000e+00
        6  2    1    2  501    0 -9.4094258726e+01 -6.9267311783e+01 +2.4990246091e+02 3.2585262493e+02 1.7342722739e+02 0.0000e+00 0.0000e+00
       24  2    3    3    0    0 -6.6017028432e+01 -8.3636279159e+01 +8.0706453483e+01 1.5367778062e+02 7.5829106467e+01 0.0000e+00 0.0000e+00
       -6  2    1    2    0  504 +6.6074578828e+01 +1.2454035537e+02 +8.2865518675e+00 2.2369941818e+02 1.7348375333e+02 0.0000e+00 0.0000e+00
      -24  2    5    5    0    0 +1.6766022267e+01 +8.8252658410e+00 -3.5486462206e+01 9.0434709967e+01 8.0994832842e+01 0.0000e+00 0.0000e+00
        5  1    3    3  501    0 -2.8077230294e+01 +1.4368967377e+01 +1.6919600743e+02 1.7217484431e+02 4.7000000000e+00 0.0000e+00 -1.0000e+00
      -13  1    4    4    0    0 -9.4895171486e+00 -2.2009604988e+01 +6.4079698958e+01 6.8415506035e+01 0.0000000000e+00 0.0000e+00 1.0000e+00
       14  1    4    4    0    0 -5.6527511283e+01 -6.1626674172e+01 +1.6626754525e+01 8.5262274585e+01 0.0000000000e+00 0.0000e+00 -1.0000e+00
       -5  1    5    5    0  504 +4.9308556561e+01 +1.1571508953e+02 +4.3773014074e+01 1.3326470822e+02 4.7000000000e+00 0.0000e+00 1.0000e+00
       13  1    6    6    0    0 -1.1135109967e+01 +2.6332053491e+01 +1.3330318411e+01 3.1544652542e+01 0.0000000000e+00 0.0000e+00 -1.0000e+00
      -14  1    6    6    0    0 +2.7901132235e+01 -1.7506787650e+01 -4.8816780617e+01 5.8890057426e+01 0.0000000000e+00 0.0000e+00 1.0000e+00
       21  1    1    2  504  505 +2.3341406041e+01 -3.0913887467e+01 -3.7881373770e+02 3.8078909851e+02 0.0000000000e+00 0.0000e+00 1.0000e+00
       21  1    1    2  505  503 +4.6782738568e+00 -2.4359156120e+01 -4.7496004811e+02 4.7560729813e+02 0.0000000000e+00 0.0000e+00 1.0000e+00
<mgrwt>
<rscale>  4 0.21124831E+03</rscale>
<asrwt>0</asrwt>
<pdfrwt beam="1">  1       21 0.62335667E-01 0.21125991E+03</pdfrwt>
<pdfrwt beam="2">  1       21 0.15396409E+00 0.21125991E+03</pdfrwt>
<totfact> 0.65263469E+02</totfact>
</mgrwt>
</event>
<event>
13      2 +1.4674046e+01 3.69429400e+02 7.54677100e-03 1.07073800e-01
       21 -1    0    0  504  502 +0.0000000000e+00 +0.0000000000e+00 +1.2681718138e+03 1.2681718138e+03 0.0000000000e+00 0.0000e+00 -1.0000e+00
       21 -1    0    0  502  503 -0.0000000000e+00 -0.0000000000e+00 -3.0001084470e+02 3.0001084470e+02 0.0000000000e+00 0.0000e+00 1.0000e+00
        6  2    1    2  501    0 -1.4996408218e+02 -4.9514062274e+01 -1.1311641014e+02 2.6333045501e+02 1.7778283940e+02 0.0000e+00 0.0000e+00
       24  2    3    3    0    0 -1.3153740302e+02 -9.3888507359e+01 -5.7475033050e+01 1.8966440634e+02 8.0944841734e+01 0.0000e+00 0.0000e+00
       -6  2    1    2    0  503 -2.0696522613e+02 -9.2054614906e+01 +2.1303779268e+02 3.5549441995e+02 1.7228617052e+02 0.0000e+00 0.0000e+00
      -24  2    5    5    0    0 -2.7872921833e+01 -4.7628181738e+01 +1.0471589057e+02 1.4147693025e+02 7.7491680760e+01 0.0000e+00 0.0000e+00
        5  1    3    3  501    0 -1.8426679167e+01 +4.4374445085e+01 -5.5641377088e+01 7.3666048666e+01 4.7000000000e+00 0.0000e+00 -1.0000e+00
      -13  1    4    4    0    0 -3.7169816505e+01 -2.9174198485e+01 -5.8544172802e+01 7.5233963643e+01 0.0000000000e+00 0.0000e+00 1.0000e+00
       14  1    4    4    0    0 -9.4367586512e+01 -6.4714308873e+01 +1.0691397527e+00 1.1443044270e+02 0.0000000000e+00 0.0000e+00 -1.0000e+00
       -5  1    5    5    0  503 -1.7909230430e+02 -4.4426433169e+01 +1.0832190211e+02 2.1401748971e+02 4.7000000000e+00 0.0000e+00 1.0000e+00
       13  1    6    6    0    0 -4.9223683020e+01 -3.2594774735e+01 +9.8173294388e+01 1.1455734826e+02 0.0000000000e+00 0.0000e+00 -1.0000e+00
      -14  1    6    6    0    0 +2.1350761187e+01 -1.5033407003e+01 +6.5425961821e+00 2.6919581984e+01 0.0000000000e+00 0.0000e+00 1.0000e+00
       21  1    1    2  504  501 +3.5692930832e+02 +1.4156867718e+02 +8.6823958659e+02 9.4935778356e+02 0.0000000000e+00 0.0000e+00 -1.0000e+00
<mgrwt>
<rscale>  3 0.33090273E+03</rscale>
<asrwt>0</asrwt>
<pdfrwt beam="1">  1       21 0.19510335E+00 0.36942937E+03</pdfrwt>
<pdfrwt beam="2">  1       21 0.46155515E-01 0.36942937E+03</pdfrwt>
<totfact> 0.56011368E+02</totfact>
</mgrwt>
</event>
<event>
14      3 +1.4674046e+01 2.33271200e+02 7.54677100e-03 1.12573100e-01
       21 -1    0    0  503  502 +0.0000000000e+00 +0.0000000000e+00 +7.5587204163e+02 7.5587204163e+02 0.0000000000e+00 0.0000e+00 -1.0000e+00
       21 -1    0    0  505  503 -0.0000000000e+00 -0.0000000000e+00 -2.1405489396e+02 2.1405489396e+02 0.0000000000e+00 0.0000e+00 1.0000e+00
        6  2    1    2  501    0 -3.5233511786e+01 +3.9467640158e+01 -6.0038363422e+00 1.9071396357e+02 1.8313021290e+02 0.0000e+00 0.0000e+00
       24  2    3    3    0    0 +3.2880845382e+01 +5.9751231215e+01 +3.1316914564e+01 1.1030303043e+02 8.0837180558e+01 0.0000e+00 0.0000e+00
       -6  2    1    2    0  502 +1.7161686643e+02 +4.9775752681e+00 +5.8265350403e+02 6.3160165454e+02 1.7308500560e+02 0.0000e+00 0.0000e+00
      -24  2    5    5    0    0 +1.7839850826e+02 -2.6748230782e+01 +4.4415883564e+02 4.8580850516e+02 7.8685048194e+01 0.0000e+00 0.0000e+00
        5  1    3    3  501    0 -6.8114357169e+01 -2.0283591056e+01 -3.7320750906e+01 8.0410933130e+01 4.7000000000e+00 0.0000e+00 -1.0000e+00
      -13  1    4    4    0    0 -1.0426906786e+01 +5.2800535210e+01 -4.0303947948e+00 5.3970927228e+01 0.0000000000e+00 0.0000e+00 1.0000e+00
       14  1    4    4    0    0 +4.3307752169e+01 +6.9506960043e+00 +3.5347309359e+01 5.6332103207e+01 0.0000000000e+00 0.0000e+00 -1.0000e+00
       -5  1    5    5    0  504 +1.0474084815e+01 +7.2653185319e+00 +2.5415431954e+01 2.8818839108e+01 4.7000000000e+00 0.0000e+00 1.0000e+00
       13  1    6    6    0    0 +1.0266985378e+02 +2.3822774297e+01 +2.2384137496e+02 2.4741379225e+02 0.0000000000e+00 0.0000e+00 -1.0000e+00
      -14  1    6    6    0    0 +7.5728654478e+01 -5.0571005078e+01 +2.2031746068e+02 2.3839471291e+02 0.0000000000e+00 0.0000e+00 1.0000e+00
       21  1    5    5  504  502 -1.7255726640e+01 +2.4460487518e+01 +1.1307923644e+02 1.1697431028e+02 0.0000000000e+00 0.0000e+00 1.0000e+00
       21  1    1    2  505  501 -1.3638335465e+02 -4.4445215426e+01 -3.4832520021e+01 1.4761131749e+02 0.0000000000e+00 0.0000e+00 1.0000e+00
<mgrwt>
<rscale>  4 0.23129626E+03</rscale>
<asrwt>0</asrwt>
<pdfrwt beam="1">  1       21 0.11628800E+00 0.23327124E+03</pdfrwt>
<pdfrwt beam="2">  1       21 0.32931523E-01 0.23327124E+03</pdfrwt>
<totfact> 0.49113814E+03</totfact>
</mgrwt>
</event>
<event>
13      2 +1.4674046e+01 1.78220100e+02 7.54677100e-03 1.16972700e-01
       21 -1    0    0  504  502 +0.0000000000e+00 +0.0000000000e+00 +1.3639413448e+02 1.3639413448e+02 0.0000000000e+00 0.0000e+00 -1.0000e+00
       21 -1    0    0  501  503 -0.0000000000e+00 -0.0000000000e+00 -5.9670860657e+02 5.9670860657e+02 0.0000000000e+00 0.0000e+00 -1.0000e+00
        6  2    1    2  501    0 +2.1366824334e+01 +1.1063056169e+01 -3.7282556055e+02 4.1171179834e+02 1.7299934654e+02 0.0000e+00 0.0000e+00
       24  2    3    3    0    0 +4.7474952166e+01 -1.2675538682e+01 -1.0430607373e+02 1.4084290012e+02 8.0885259061e+01 0.0000e+00 0.0000e+00
       -6  2    1    2    0  502 -1.0552820869e+02 +4.6305155781e+00 -1.1375077911e+02 2.3184144522e+02 1.7220212389e+02 0.0000e+00 0.0000e+00
      -24  2    5    5    0    0 -7.4769001558e+01 -3.3102050694e+01 -6.3734072812e+00 1.1385049065e+02 7.8963058110e+01 0.0000e+00 0.0000e+00
        5  1    3    3  501    0 -2.6108127832e+01 +2.3738594850e+01 -2.6851948682e+02 2.7086889822e+02 4.7000000000e+00 0.0000e+00 -1.0000e+00
      -13  1    4    4    0    0 +2.9028450478e+01 +3.2046829899e+01 -6.7046907888e+01 7.9780562176e+01 0.0000000000e+00 0.0000e+00 1.0000e+00
       14  1    4    4    0    0 +1.8446501688e+01 -4.4722368581e+01 -3.7259165842e+01 6.1062337945e+01 0.0000000000e+00 0.0000e+00 -1.0000e+00
       -5  1    5    5    0  502 -3.0759207136e+01 +3.7732566272e+01 -1.0737737183e+02 1.1799095458e+02 4.7000000000e+00 0.0000e+00 1.0000e+00
       13  1    6    6    0    0 -2.3086483752e+01 -5.3353948691e+01 -4.5372713951e+00 5.8311374573e+01 0.0000000000e+00 0.0000e+00 -1.0000e+00
      -14  1    6    6    0    0 -5.1682517806e+01 +2.0251897997e+01 -1.8361358861e+00 5.5539116073e+01 0.0000000000e+00 0.0000e+00 1.0000e+00
       21  1    1    2  504  503 +8.4161384360e+01 -1.5693571747e+01 +2.6261867566e+01 8.9549497484e+01 0.0000000000e+00 0.0000e+00 -1.0000e+00
<mgrwt>
<rscale>  3 0.17802630E+03</rscale>
<asrwt>0</asrwt>
<pdfrwt beam="1">  1       21 0.20983713E-01 0.17822005E+03</pdfrwt>
<pdfrwt beam="2">  1       21 0.91801324E-01 0.17822005E+03</pdfrwt>
<totfact> 0.21356378E+04</totfact>
</mgrwt>
</event>
<event>
13      2 +1.4674046e+01 2.51279200e+02 7.54677100e-03 1.11464200e-01
       21 -1    0    0  501  502 +0.0000000000e+00 +0.0000000000e+00 +1.2188857631e+02 1.2188857631e+02 0.0000000000e+00 0.0000e+00 -1.0000e+00
       21 -1    0    0  504  503 -0.0000000000e+00 -0.0000000000e+00 -1.0168783621e+03 1.0168783621e+03 0.0000000000e+00 0.0000e+00 -1.0000e+00
       -6  2    1    2    0  503 -8.1104979652e+01 -1.5111403917e+02 -1.6952441457e+02 2.9672401206e+02 1.7289633206e+02 0.0000e+00 0.0000e+00
      -24  2    3    3    0    0 -1.1528826392e+02 -1.5430528065e+02 -1.4832438395e+02 2.5610120758e+02 8.0536961798e+01 0.0000e+00 0.0000e+00
        6  2    1    2  501    0 +1.1327503653e+02 +1.1082404831e+02 -2.1274093239e+02 3.2673278080e+02 1.9074171583e+02 0.0000e+00 0.0000e+00
       24  2    5    5    0    0 +2.8163829610e+01 -1.5603816696e+01 -3.6010970661e+01 9.3315789212e+01 7.9839627470e+01 0.0000e+00 0.0000e+00
        5  1    5    5  501    0 +8.5111206915e+01 +1.2642786501e+02 -1.7672996173e+02 2.3341699159e+02 4.7000000000e+00 0.0000e+00 -1.0000e+00
      -13  1    6    6    0    0 -1.8634063517e+01 +1.7864253291e+01 -7.2694171419e-01 2.5824180782e+01 0.0000000000e+00 0.0000e+00 1.0000e+00
       14  1    6    6    0    0 +4.6797893127e+01 -3.3468069987e+01 -3.5284028947e+01 6.7491608431e+01 0.0000000000e+00 0.0000e+00 -1.0000e+00
       -5  1    3    3    0  503 +3.4183284269e+01 +3.1912414763e+00 -2.1200030624e+01 4.0622804483e+01 4.7000000000e+00 0.0000e+00 1.0000e+00
       13  1    4    4    0    0 -6.2351444045e+01 -3.5941316059e+01 -8.6290735254e+01 1.1236356956e+02 0.0000000000e+00 0.0000e+00 -1.0000e+00
      -14  1    4    4    0    0 -5.2936819877e+01 -1.1836396459e+02 -6.2033648695e+01 1.4373763801e+02 0.0000000000e+00 0.0000e+00 1.0000e+00
       21  1    1    2  504  502 -3.2170056873e+01 +4.0289990859e+01 -5.1272443882e+02 5.1531014553e+02 0.0000000000e+00 0.0000e+00 -1.0000e+00
<mgrwt>
<rscale>  3 0.24789592E+03</rscale>
<asrwt>0</asrwt>
<pdfrwt beam="1">  1       21 0.18752089E-01 0.25127925E+03</pdfrwt>
<pdfrwt beam="2">  1       21 0.15644282E+00 0.25127925E+03</pdfrwt>
<totfact> 0.66662407E+03</totfact>
</mgrwt>
</event>
<event>
13      2 +1.4674046e+01 2.46643500e+02 7.54677100e-03 1.11644000e-01
       21 -1    0    0  501  502 +0.0000000000e+00 +0.0000000000e+00 +3.7931807444e+02 3.7931807444e+02 0.0000000000e+00 0.0000e+00 -1.0000e+00
       21 -1    0    0  504  503 -0.0000000000e+00 -0.0000000000e+00 -2.3895955346e+02 2.3895955346e+02 0.0000000000e+00 0.0000e+00 1.0000e+00
        6  2    1    2  501    0 +1.7455599255e+02 -1.5174569131e+01 +9.9453545896e+00 2.4071180007e+02 1.6475193028e+02 0.0000e+00 0.0000e+00
       24  2    3    3    0    0 +9.0662404302e+01 +5.1714014564e+01 -7.3699402259e+00 1.3192702994e+02 8.0351816117e+01 0.0000e+00 0.0000e+00
       -6  2    1    2    0  503 -1.7561474632e+02 -9.0687878576e+00 +1.9100788112e+02 3.1229270341e+02 1.7355097209e+02 0.0000e+00 0.0000e+00
      -24  2    5    5    0    0 -1.5564549475e+02 -4.9473689914e+01 +1.9423347785e+02 2.6686340017e+02 8.2560671051e+01 0.0000e+00 0.0000e+00
        5  1    3    3  501    0 +8.3893588251e+01 -6.6888583695e+01 +1.7315294815e+01 1.0878477013e+02 4.7000000000e+00 0.0000e+00 -1.0000e+00
      -13  1    4    4    0    0 +2.0397630174e+01 +5.1199134924e+00 -3.7002506677e+01 4.2561277368e+01 0.0000000000e+00 0.0000e+00 1.0000e+00
       14  1    4    4    0    0 +7.0264774128e+01 +4.6594101071e+01 +2.9632566451e+01 8.9365752570e+01 0.0000000000e+00 0.0000e+00 -1.0000e+00
       -5  1    5    5    0  503 -1.9969251567e+01 +4.0404902056e+01 -3.2255967245e+00 4.5429303237e+01 4.7000000000e+00 0.0000e+00 1.0000e+00
       13  1    6    6    0    0 -2.7098347351e+01 +1.4878182490e+00 +8.9139281457e+01 9.3179104583e+01 0.0000000000e+00 0.0000e+00 -1.0000e+00
      -14  1    6    6    0    0 -1.2854714740e+02 -5.0961508163e+01 +1.0509419639e+02 1.7368429559e+02 0.0000000000e+00 0.0000e+00 1.0000e+00
       21  1    1    2  504  502 +1.0587537679e+00 +2.4243356989e+01 -6.0594714732e+01 6.5273124416e+01 0.0000000000e+00 0.0000e+00 1.0000e+00
<mgrwt>
<rscale>  3 0.24510155E+03</rscale>
<asrwt>0</asrwt>
<pdfrwt beam="1">  1       21 0.58356627E-01 0.24664350E+03</pdfrwt>
<pdfrwt beam="2">  1       21 0.36763008E-01 0.24664350E+03</pdfrwt>
<totfact> 0.19044415E+04</totfact>
</mgrwt>
</event>
<event>
14      3 +1.4674046e+01 2.72469100e+02 7.54677100e-03 1.09998700e-01
       -4 -1    0    0    0  501 -0.0000000000e+00 +0.0000000000e+00 +1.8082671138e+02 1.8082671138e+02 0.0000000000e+00 0.0000e+00 -1.0000e+00
       21 -1    0    0  501  503 +0.0000000000e+00 -0.0000000000e+00 -5.8558551485e+02 5.8558551485e+02 0.0000000000e+00 0.0000e+00 -1.0000e+00
        6  2    1    2  502    0 +1.6460682337e+02 +1.5087152341e+02 -1.7574049101e+02 3.3213731144e+02 1.7196758589e+02 0.0000e+00 0.0000e+00
       24  2    3    3    0    0 +5.6789562560e+01 +9.5808894015e+01 -1.5866070450e+02 2.0978428128e+02 8.0198671612e+01 0.0000e+00 0.0000e+00
       -6  2    1    2    0  504 -1.1340337629e+02 -1.6622001772e+02 -1.5450267299e+02 3.0718795943e+02 1.7321647270e+02 0.0000e+00 0.0000e+00
      -24  2    5    5    0    0 -1.1178052045e+02 -4.8910717355e+01 -7.1949663110e+01 1.6365679539e+02 8.1973469055e+01 0.0000e+00 0.0000e+00
        5  1    3    3  502    0 +1.0781726081e+02 +5.5062629392e+01 -1.7079786504e+01 1.2235303017e+02 4.7000000000e+00 0.0000e+00 -1.0000e+00
      -13  1    4    4    0    0 +1.5844077146e+01 -1.3168195498e+01 -2.8366489642e+01 3.5058435331e+01 0.0000000000e+00 0.0000e+00 1.0000e+00
       14  1    4    4    0    0 +4.0945485414e+01 +1.0897708951e+02 -1.3029421486e+02 1.7472584594e+02 0.0000000000e+00 0.0000e+00 -1.0000e+00
       -5  1    5    5    0  504 -1.6228558386e+00 -1.1730930036e+02 -8.2553009885e+01 1.4353116405e+02 4.7000000000e+00 0.0000e+00 1.0000e+00
       13  1    6    6    0    0 -5.9149375257e+01 -4.9831110794e+01 -7.8989178174e+01 1.1054898672e+02 0.0000000000e+00 0.0000e+00 -1.0000e+00
      -14  1    6    6    0    0 -5.2631145197e+01 +9.2039343930e-01 +7.0395150639e+00 5.3107808665e+01 0.0000000000e+00 0.0000e+00 1.0000e+00
       21  1    1    2  504  503 -8.0615656855e+00 +2.5405618917e+01 -7.8217234299e+01 8.2633952194e+01 0.0000000000e+00 0.0000e+00 -1.0000e+00
       -4  1    1    2    0  502 -4.3141881388e+01 -1.0057124608e+01 +3.7015948349e+00 4.4453003154e+01 0.0000000000e+00 0.0000e+00 -1.0000e+00
<mgrwt>
<rscale>  4 0.27227079E+03</rscale>
<asrwt>0</asrwt>
<pdfrwt beam="2">  1       21 0.90090080E-01 0.27246907E+03</pdfrwt>
<pdfrwt beam="1">  1       -4 0.27819494E-01 0.27246907E+03</pdfrwt>
<totfact> 0.53595535E+02</totfact>
</mgrwt>
</event>
<event>
14      3 +1.4674046e+01 2.28283700e+02 7.54677100e-03 1.12823600e-01
       21 -1    0    0  505  502 +0.0000000000e+00 +0.0000000000e+00 +9.3708567606e+02 9.3708567606e+02 0.0000000000e+00 0.0000e+00 1.0000e+00
       21 -1    0    0  501  503 -0.0000000000e+00 -0.0000000000e+00 -9.8550619957e+01 9.8550619957e+01 0.0000000000e+00 0.0000e+00 -1.0000e+00
        6  2    1    2  501    0 +6.0048093425e+01 +1.1612915585e+02 +2.5022919930e+02 3.3091785617e+02 1.7262740509e+02 0.0000e+00 0.0000e+00
       24  2    3    3    0    0 +5.7432066765e+01 +6.8379863518e+01 +2.5566783567e+02 2.8255974124e+02 8.0620823274e+01 0.0000e+00 0.0000e+00
       -6  2    1    2    0  502 -4.6384096001e+01 -1.6102004912e+02 +2.0852022093e+02 3.1683988110e+02 1.6978777087e+02 0.0000e+00 0.0000e+00
      -24  2    5    5    0    0 -9.3573538634e+00 -1.6384182746e+02 +2.1109336070e+02 2.7932117757e+02 8.0797331700e+01 0.0000e+00 0.0000e+00
        5  1    3    3  501    0 +2.6160266595e+00 +4.7749292336e+01 -5.4386363717e+00 4.8358114930e+01 4.7000000000e+00 0.0000e+00 -1.0000e+00
      -13  1    4    4    0    0 +6.5326559506e+01 +8.0544381105e+01 +2.0332943561e+02 2.2824946022e+02 0.0000000000e+00 0.0000e+00 1.0000e+00
       14  1    4    4    0    0 -7.8944927402e+00 -1.2164517587e+01 +5.2338400060e+01 5.4310281021e+01 0.0000000000e+00 0.0000e+00 -1.0000e+00
       -5  1    5    5    0  502 -3.7026742138e+01 +2.8217783429e+00 -2.5731397658e+00 3.7518703531e+01 4.7000000000e+00 0.0000e+00 1.0000e+00
       13  1    6    6    0    0 +2.8650731639e+01 -2.6119784909e+01 +3.2337937662e+01 5.0486134724e+01 0.0000000000e+00 0.0000e+00 -1.0000e+00
      -14  1    6    6    0    0 -3.8008085503e+01 -1.3772204255e+02 +1.7875542304e+02 2.2883504284e+02 0.0000000000e+00 0.0000e+00 1.0000e+00
       21  1    1    2  504  503 +1.4567040898e+01 +1.7511383915e+01 +4.1720557835e+01 4.7533695345e+01 0.0000000000e+00 0.0000e+00 1.0000e+00
       21  1    1    2  505  504 -2.8231038321e+01 +2.7379509351e+01 +3.3806507804e+02 3.4034486340e+02 0.0000000000e+00 0.0000e+00 1.0000e+00
<mgrwt>
<rscale>  4 0.22774692E+03</rscale>
<asrwt>0</asrwt>
<pdfrwt beam="1">  1       21 0.14416702E+00 0.22828374E+03</pdfrwt>
<pdfrwt beam="2">  1       21 0.15161634E-01 0.22828374E+03</pdfrwt>
<totfact> 0.12448379E+04</totfact>
</mgrwt>
</event>
<event>
14      3 +1.4674046e+01 2.20655000e+02 7.54677100e-03 1.13339600e-01
       21 -1    0    0  502  503 +0.0000000000e+00 +0.0000000000e+00 +6.8355557292e+02 6.8355557292e+02 0.0000000000e+00 0.0000e+00 -1.0000e+00
        2 -1    0    0  504    0 -0.0000000000e+00 -0.0000000000e+00 -1.4934009858e+03 1.4934009858e+03 0.0000000000e+00 0.0000e+00 -1.0000e+00
        6  2    1    2  501    0 +1.8361545123e+01 +2.2436155579e+02 -6.5585223200e+02 7.1492972723e+02 1.7408937534e+02 0.0000e+00 0.0000e+00
       24  2    3    3    0    0 +4.5248888590e+01 +4.5684548957e+01 -2.0886625579e+02 2.3278145653e+02 8.0172026084e+01 0.0000e+00 0.0000e+00
       -6  2    1    2    0  503 -1.0014853751e+02 -1.5411400162e+01 -2.9717485683e+02 3.5918446265e+02 1.7445154588e+02 0.0000e+00 0.0000e+00
      -24  2    5    5    0    0 -5.4016087668e+01 -7.1767180800e+01 -2.3388639876e+02 2.6258375942e+02 7.8607361102e+01 0.0000e+00 0.0000e+00
        5  1    3    3  501    0 -2.6887343467e+01 +1.7867700684e+02 -4.4698597621e+02 4.8214827070e+02 4.7000000000e+00 0.0000e+00 -1.0000e+00
      -13  1    4    4    0    0 +8.4522265966e+00 +2.0266949266e+01 -3.0585759907e+00 2.2170797326e+01 0.0000000000e+00 0.0000e+00 1.0000e+00
       14  1    4    4    0    0 +3.6796661994e+01 +2.5417599691e+01 -2.0580767980e+02 2.1061065921e+02 0.0000000000e+00 0.0000e+00 -1.0000e+00
       -5  1    5    5    0  503 -4.6132449847e+01 +5.6355780637e+01 -6.3288458066e+01 9.6600703230e+01 4.7000000000e+00 0.0000e+00 1.0000e+00
       13  1    6    6    0    0 +1.8190461387e+01 -1.1571344051e+01 -2.2114741906e+01 3.0884473416e+01 0.0000000000e+00 0.0000e+00 -1.0000e+00
      -14  1    6    6    0    0 -7.2206549054e+01 -6.0195836749e+01 -2.1177165685e+02 2.3169928600e+02 0.0000000000e+00 0.0000e+00 1.0000e+00
       21  1    1    2  504  501 +2.9492498173e+01 -2.1530683257e+01 -4.6390274148e+02 4.6533765302e+02 0.0000000000e+00 0.0000e+00 -1.0000e+00
        2  1    1    2  502    0 +5.2294494219e+01 -1.8741947237e+02 +6.0708441744e+02 6.3750471579e+02 0.0000000000e+00 0.0000e+00 -1.0000e+00
<mgrwt>
<rscale>  4 0.22065497E+03</rscale>
<asrwt>0</asrwt>
<pdfrwt beam="1">  1       21 0.10516240E+00 0.22065497E+03</pdfrwt>
<pdfrwt beam="2">  1        2 0.22975399E+00 0.22065497E+03</pdfrwt>
<totfact> 0.12560581E+02</totfact>
</mgrwt>
</event>
<event>
12      2 +1.4674046e+01 2.99614800e+02 7.54677100e-03 1.10136700e-01
       21 -1    0    0  504  502 +0.0000000000e+00 +0.0000000000e+00 +1.3339609779e+02 1.3339609779e+02 0.0000000000e+00 0.0000e+00 -1.0000e+00
       21 -1    0    0  501  503 -0.0000000000e+00 -0.0000000000e+00 -5.0476728077e+02 5.0476728077e+02 0.0000000000e+00 0.0000e+00 -1.0000e+00
       24  2    1    2    0    0 +8.4891666372e+01 +1.2461152583e+02 -2.3588171812e+02 2.8920841605e+02 7.2572002744e+01 0.0000e+00 0.0000e+00
       -6  2    1    2    0  502 -8.0151080679e+01 -3.0982905274e+01 -1.3911883237e+02 2.3839196041e+02 1.7347201824e+02 0.0000e+00 0.0000e+00
      -24  2    4    4    0    0 -3.3826451890e+01 -7.5720115940e+01 -1.2766901532e+02 1.7281317145e+02 8.1775607288e+01 0.0000e+00 0.0000e+00
        5  1    1    2  501    0 +1.0201178507e+01 -7.8079764791e+01 +2.2369090745e+01 8.1993779846e+01 4.7000000000e+00 0.0000e+00 -1.0000e+00
      -13  1    3    3    0    0 +7.7825548201e+01 +6.1154361103e+01 -1.7463045034e+02 2.0072983341e+02 0.0000000000e+00 0.0000e+00 1.0000e+00
       14  1    3    3    0    0 +7.0661181705e+00 +6.3457164732e+01 -6.1251267777e+01 8.8478582640e+01 0.0000000000e+00 0.0000e+00 -1.0000e+00
       -5  1    4    4    0  502 -4.6324628788e+01 +4.4737210666e+01 -1.1449817048e+01 6.5578788956e+01 4.7000000000e+00 0.0000e+00 1.0000e+00
       13  1    5    5    0    0 -1.0368008795e+01 -1.5491795704e+01 +9.6880484985e+00 2.1008322736e+01 0.0000000000e+00 0.0000e+00 -1.0000e+00
      -14  1    5    5    0    0 -2.3458443096e+01 -6.0228320237e+01 -1.3735706382e+02 1.5180484871e+02 0.0000000000e+00 0.0000e+00 1.0000e+00
       21  1    1    2  504  503 -1.4941764200e+01 -1.5548855770e+01 -1.8739723234e+01 2.8569222251e+01 0.0000000000e+00 0.0000e+00 -1.0000e+00
<mgrwt>
<rscale>  3 0.26984763E+03</rscale>
<asrwt>0</asrwt>
<pdfrwt beam="1">  1       21 0.20522477E-01 0.29961477E+03</pdfrwt>
<pdfrwt beam="2">  1       21 0.77656503E-01 0.29961477E+03</pdfrwt>
<totfact> 0.30802763E+04</totfact>
</mgrwt>
</event>
<event>
13      2 +1.4674046e+01 4.38124400e+02 7.54677100e-03 1.03149200e-01
       21 -1    0    0  501  502 +0.0000000000e+00 +0.0000000000e+00 +1.5725667071e+02 1.5725667071e+02 0.0000000000e+00 0.0000e+00 1.0000e+00
       21 -1    0    0  502  503 -0.0000000000e+00 -0.0000000000e+00 -1.5612406543e+03 1.5612406543e+03 0.0000000000e+00 0.0000e+00 -1.0000e+00
        6  2    1    2  501    0 +2.4994880250e+02 -3.5027265795e+02 -4.1748254061e+02 6.2304671408e+02 1.6949984494e+02 0.0000e+00 0.0000e+00
       24  2    3    3    0    0 +1.3632730619e+02 -1.0126940307e+02 -1.8670864019e+02 2.6500879922e+02 8.0801738420e+01 0.0000e+00 0.0000e+00
       -6  2    1    2    0  504 -1.9180138084e+02 +2.9522620038e+02 -8.6197446462e+02 9.4740263399e+02 1.7500141186e+02 0.0000e+00 0.0000e+00
      -24  2    5    5    0    0 -1.5960907265e+02 +2.9162103460e+02 -8.4227750767e+02 9.0920051310e+02 8.1830857291e+01 0.0000e+00 0.0000e+00
        5  1    3    3  501    0 +1.1362149632e+02 -2.4900325487e+02 -2.3077390041e+02 3.5803791486e+02 4.7000000000e+00 0.0000e+00 -1.0000e+00
      -13  1    4    4    0    0 +4.4730427892e+01 -6.3204422606e+01 -3.7997265300e+01 8.6251970335e+01 0.0000000000e+00 0.0000e+00 1.0000e+00
       14  1    4    4    0    0 +9.1596878294e+01 -3.8064980468e+01 -1.4871137489e+02 1.7875682889e+02 0.0000000000e+00 0.0000e+00 -1.0000e+00
       -5  1    5    5    0  504 -3.2192308197e+01 +3.6051657769e+00 -1.9696956947e+01 3.8202120887e+01 4.7000000000e+00 0.0000e+00 1.0000e+00
       13  1    6    6    0    0 -1.4224483179e+02 +1.8407272440e+02 -5.4405673995e+02 5.9170439944e+02 0.0000000000e+00 0.0000e+00 -1.0000e+00
      -14  1    6    6    0    0 -1.7364240863e+01 +1.0754831020e+02 -2.9822076772e+02 3.1749611366e+02 0.0000000000e+00 0.0000e+00 1.0000e+00
       21  1    1    2  504  503 -5.8147421656e+01 +5.5046457572e+01 -1.2452697839e+02 1.4804797696e+02 0.0000000000e+00 0.0000e+00 -1.0000e+00
<mgrwt>
<rscale>  3 0.43758131E+03</rscale>
<asrwt>0</asrwt>
<pdfrwt beam="1">  1       21 0.24193333E-01 0.43812440E+03</pdfrwt>
<pdfrwt beam="2">  1       21 0.24019088E+00 0.43812440E+03</pdfrwt>
<totfact> 0.10158410E+03</totfact>
</mgrwt>
</event>
<event>
12      1 +1.4674046e+01 1.98857000e+02 7.54677100e-03 1.15193600e-01
       21 -1    0    0  503  502 +0.0000000000e+00 +0.0000000000e+00 +4.1196568267e+02 4.1196568267e+02 0.0000000000e+00 0.0000e+00 -1.0000e+00
       21 -1    0    0  501  503 -0.0000000000e+00 -0.0000000000e+00 -1.0862217945e+02 1.0862217945e+02 0.0000000000e+00 0.0000e+00 1.0000e+00
        6  2    1    2  501    0 +7.1684819465e+01 +6.5512267015e+01 +5.5685702547e+01 2.0650670113e+02 1.7353256084e+02 0.0000e+00 0.0000e+00
       24  2    3    3    0    0 +9.6385314002e+00 +3.2122615672e+01 -3.4882897029e+01 9.1661710341e+01 7.7847857467e+01 0.0000e+00 0.0000e+00
       -6  2    1    2    0  502 -7.1684819465e+01 -6.5512267015e+01 +2.4765780068e+02 3.1408116100e+02 1.6697909746e+02 0.0000e+00 0.0000e+00
      -24  2    5    5    0    0 -1.1222258897e+02 -3.2413423688e+01 +1.7153549031e+02 2.2158499718e+02 7.7659172221e+01 0.0000e+00 0.0000e+00
        5  1    3    3  501    0 +6.2046288065e+01 +3.3389651343e+01 +9.0568599576e+01 1.1484499079e+02 4.7000000000e+00 0.0000e+00 -1.0000e+00
      -13  1    4    4    0    0 -1.2027433290e+01 +4.8071162822e+01 -4.0714470096e+01 6.4133952957e+01 0.0000000000e+00 0.0000e+00 1.0000e+00
       14  1    4    4    0    0 +2.1665964690e+01 -1.5948547150e+01 +5.8315730672e+00 2.7527757384e+01 0.0000000000e+00 0.0000e+00 -1.0000e+00
       -5  1    5    5    0  502 +4.0537769502e+01 -3.3098843327e+01 +7.6122310363e+01 9.2496163817e+01 4.7000000000e+00 0.0000e+00 1.0000e+00
       13  1    6    6    0    0 -1.1800163607e+01 -2.3543050350e+01 +8.4134864058e+01 8.8160050085e+01 0.0000000000e+00 0.0000e+00 -1.0000e+00
      -14  1    6    6    0    0 -1.0042242536e+02 -8.8703733389e+00 +8.7400626254e+01 1.3342494710e+02 0.0000000000e+00 0.0000e+00 1.0000e+00
<mgrwt>
<rscale>  2 0.19741841E+03</rscale>
<asrwt>0</asrwt>
<pdfrwt beam="1">  1       21 0.63379335E-01 0.19885703E+03</pdfrwt>
<pdfrwt beam="2">  1       21 0.16711105E-01 0.19885703E+03</pdfrwt>
<totfact> 0.73921178E+04</totfact>
</mgrwt>
</event>
<event>
12      1 +1.4674046e+01 1.94224600e+02 7.54677100e-03 1.15470500e-01
       -1 -1    0    0    0  501 -0.0000000000e+00 +0.0000000000e+00 +5.9989880644e+01 5.9989880644e+01 0.0000000000e+00 0.0000e+00 1.0000e+00
        1 -1    0    0  502    0 +0.0000000000e+00 -0.0000000000e+00 -7.4862086524e+02 7.4862086524e+02 0.0000000000e+00 0.0000e+00 -1.0000e+00
        6  2    1    2  502    0 -8.3561398921e+01 -3.0315582626e+01 -1.8306426911e+02 2.6713503994e+02 1.7305219156e+02 0.0000e+00 0.0000e+00
       24  2    3    3    0    0 -1.5486511968e+01 +3.8297042712e+01 -1.2361729038e+02 1.5356604827e+02 8.1208381141e+01 0.0000e+00 0.0000e+00
       -6  2    1    2    0  501 +8.3561398921e+01 +3.0315582626e+01 -5.0556671549e+02 5.4147570595e+02 1.7232728854e+02 0.0000e+00 0.0000e+00
      -24  2    5    5    0    0 +2.6891128378e+01 -1.2036390379e+01 -4.2807999838e+02 4.3644480330e+02 7.9772011617e+01 0.0000e+00 0.0000e+00
        5  1    3    3  502    0 -6.8074886954e+01 -6.8612625338e+01 -5.9446978727e+01 1.1356899167e+02 4.7000000000e+00 0.0000e+00 -1.0000e+00
      -13  1    4    4    0    0 +4.5569180490e+00 -1.8262402187e+01 -3.2916695905e+00 1.9108006815e+01 0.0000000000e+00 0.0000e+00 1.0000e+00
       14  1    4    4    0    0 -2.0043430017e+01 +5.6559444899e+01 -1.2032562079e+02 1.3445804146e+02 0.0000000000e+00 0.0000e+00 -1.0000e+00
       -5  1    5    5    0  501 +5.6670270544e+01 +4.2351973005e+01 -7.7486717112e+01 1.0503090264e+02 4.7000000000e+00 0.0000e+00 1.0000e+00
       13  1    6    6    0    0 +5.1119803903e+01 -2.3949116586e+01 -3.2616578256e+02 3.3101497285e+02 0.0000000000e+00 0.0000e+00 -1.0000e+00
      -14  1    6    6    0    0 -2.4228675525e+01 +1.1912726207e+01 -1.0191421582e+02 1.0542983046e+02 0.0000000000e+00 0.0000e+00 1.0000e+00
<mgrwt>
<rscale>  2 0.19422464E+03</rscale>
<asrwt>0</asrwt>
<pdfrwt beam="2">  1        1 0.11517244E+00 0.19422464E+03</pdfrwt>
<pdfrwt beam="1">  1       -1 0.92292125E-02 0.19422464E+03</pdfrwt>
<totfact> 0.17535362E+03</totfact>
</mgrwt>
</event>
<event>
13      2 +1.4674046e+01 2.11003100e+02 7.54677100e-03 1.14106100e-01
       21 -1    0    0  501  502 +0.0000000000e+00 +0.0000000000e+00 +4.8279170252e+02 4.8279170252e+02 0.0000000000e+00 0.0000e+00 1.0000e+00
       21 -1    0    0  504  503 -0.0000000000e+00 -0.0000000000e+00 -2.6328800244e+02 2.6328800244e+02 0.0000000000e+00 0.0000e+00 1.0000e+00
       -6  2    1    2    0  503 -9.0401395884e+01 -1.1691008022e+01 -2.4421147018e+01 1.9489878943e+02 1.7052874729e+02 0.0000e+00 0.0000e+00
      -24  2    3    3    0    0 -1.2006421741e+02 +1.1737025189e+01 -4.5959738581e+01 1.5114085703e+02 7.8600808087e+01 0.0000e+00 0.0000e+00
        6  2    1    2  501    0 +1.0986146912e+02 +1.8203141369e+02 +2.7461879999e+01 2.7504550603e+02 1.7231046853e+02 0.0000e+00 0.0000e+00
       24  2    5    5    0    0 +2.3051415377e+01 +5.2878907861e+01 +5.8959304785e+01 1.1620428669e+02 8.1851633930e+01 0.0000e+00 0.0000e+00
        5  1    5    5  501    0 +8.6810053744e+01 +1.2915250583e+02 -3.1497424786e+01 1.5884121934e+02 4.7000000000e+00 0.0000e+00 -1.0000e+00
      -13  1    6    6    0    0 -1.9079829577e+01 +1.7960064758e+01 -1.0109601281e+01 2.8085723435e+01 0.0000000000e+00 0.0000e+00 1.0000e+00
       14  1    6    6    0    0 +4.2131244954e+01 +3.4918843103e+01 +6.9068906066e+01 8.8118563255e+01 0.0000000000e+00 0.0000e+00 -1.0000e+00
       -5  1    3    3    0  503 +2.9662821525e+01 -2.3428033211e+01 +2.1538591562e+01 4.3757932395e+01 4.7000000000e+00 0.0000e+00 1.0000e+00
       13  1    4    4    0    0 +8.3803406041e+00 +8.9310356717e+00 +4.5895344354e+00 1.3078888834e+01 0.0000000000e+00 0.0000e+00 -1.0000e+00
      -14  1    4    4    0    0 -1.2844455801e+02 +2.8059895175e+00 -5.0549273016e+01 1.3806196820e+02 0.0000000000e+00 0.0000e+00 1.0000e+00
       21  1    1    2  504  502 -1.9460073236e+01 -1.7034040567e+02 +2.1646296710e+02 2.7613540950e+02 0.0000000000e+00 0.0000e+00 1.0000e+00
<mgrwt>
<rscale>  3 0.21063906E+03</rscale>
<asrwt>0</asrwt>
<pdfrwt beam="1">  1       21 0.74275647E-01 0.21100312E+03</pdfrwt>
<pdfrwt beam="2">  1       21 0.40505847E-01 0.21100312E+03</pdfrwt>
<totfact> 0.94210180E+03</totfact>
</mgrwt>
</event>
<event>
13      2 +1.4674046e+01 1.95439600e+02 7.54677100e-03 1.15458200e-01
       21 -1    0    0  504  502 +0.0000000000e+00 +0.0000000000e+00 +7.2838973825e+02 7.2838973825e+02 0.0000000000e+00 0.0000e+00 1.0000e+00
       21 -1    0    0  501  503 -0.0000000000e+00 -0.0000000000e+00 -1.1953356432e+02 1.1953356432e+02 0.0000000000e+00 0.0000e+00 -1.0000e+00
        6  2    1    2  501    0 -4.8344385087e+01 +5.9940104289e+00 +1.6383080642e+02 2.4315392931e+02 1.7294563446e+02 0.0000e+00 0.0000e+00
       24  2    3    3    0    0 -5.7162458392e+01 +6.5510234210e+01 +1.2013003775e+02 1.6864361800e+02 8.0313800100e+01 0.0000e+00 0.0000e+00
       -6  2    1    2    0  502 +7.9017178395e+01 -7.6471704150e+01 +6.7590473043e+01 2.1958756538e+02 1.7764737771e+02 0.0000e+00 0.0000e+00
      -24  2    5    5    0    0 +7.4601229628e+01 -6.0384222229e+01 +1.1444731705e+02 1.6962796662e+02 8.0398140060e+01 0.0000e+00 0.0000e+00
        5  1    3    3  501    0 +8.8180733055e+00 -5.9516223781e+01 +4.3700768670e+01 7.4510311316e+01 4.7000000000e+00 0.0000e+00 -1.0000e+00
      -13  1    4    4    0    0 -5.5475982925e+00 -1.8747601955e+01 +1.9811366322e+01 2.7834127639e+01 0.0000000000e+00 0.0000e+00 1.0000e+00
       14  1    4    4    0    0 -5.1614860100e+01 +8.4257836166e+01 +1.0031867142e+02 1.4080949036e+02 0.0000000000e+00 0.0000e+00 -1.0000e+00
       -5  1    5    5    0  502 +4.4159487674e+00 -1.6087481922e+01 -4.6856844002e+01 4.9959598757e+01 4.7000000000e+00 0.0000e+00 1.0000e+00
       13  1    6    6    0    0 +3.6113902360e+01 -2.1463175067e+01 -8.2636691056e-01 4.2018623370e+01 0.0000000000e+00 0.0000e+00 -1.0000e+00
      -14  1    6    6    0    0 +3.8487327268e+01 -3.8921047162e+01 +1.1527368396e+02 1.2760934325e+02 0.0000000000e+00 0.0000e+00 1.0000e+00
       21  1    1    2  504  503 -3.0672793309e+01 +7.0477693722e+01 +3.7743489446e+02 3.8518180788e+02 0.0000000000e+00 0.0000e+00 1.0000e+00
<mgrwt>
<rscale>  3 0.19436487E+03</rscale>
<asrwt>0</asrwt>
<pdfrwt beam="1">  1       21 0.11205996E+00 0.19543962E+03</pdfrwt>
<pdfrwt beam="2">  1       21 0.18389780E-01 0.19543962E+03</pdfrwt>
<totfact> 0.16818440E+04</totfact>
</mgrwt>
</event>
<event>
12      1 +1.4674046e+01 1.87222900e+02 7.54677100e-03 1.16105200e-01
       21 -1    0    0  503  502 +0.0000000000e+00 +0.0000000000e+00 +3.0115229380e+02 3.0115229380e+02 0.0000000000e+00 0.0000e+00 1.0000e+00
       21 -1    0    0  501  503 -0.0000000000e+00 -0.0000000000e+00 -1.3470128920e+02 1.3470128920e+02 0.0000000000e+00 0.0000e+00 -1.0000e+00
        6  2    1    2  501    0 -6.3361192126e+01 -3.5572863223e+01 +2.5702195478e+00 1.8724054005e+02 1.7254664455e+02 0.0000e+00 0.0000e+00
       24  2    3    3    0    0 -6.6643987325e+01 +3.0929807799e+01 +3.2639173476e+01 1.1403115549e+02 8.0868502649e+01 0.0000e+00 0.0000e+00
       -6  2    1    2    0  502 +6.3361192126e+01 +3.5572863223e+01 +1.6388078504e+02 2.4861304295e+02 1.7225406861e+02 0.0000e+00 0.0000e+00
      -24  2    5    5    0    0 -2.9781136414e+01 +8.7091530689e+00 +1.0108468010e+02 1.3301636010e+02 8.0699901301e+01 0.0000e+00 0.0000e+00
        5  1    3    3  501    0 +3.2827951997e+00 -6.6502671022e+01 -3.0068953928e+01 7.3209384561e+01 4.7000000000e+00 0.0000e+00 -1.0000e+00
      -13  1    4    4    0    0 -3.0471925554e+01 -1.2086002900e+01 +4.5785663113e+01 5.6311070490e+01 0.0000000000e+00 0.0000e+00 1.0000e+00
       14  1    4    4    0    0 -3.6172061772e+01 +4.3015810699e+01 -1.3146489637e+01 5.7720085002e+01 0.0000000000e+00 0.0000e+00 -1.0000e+00
       -5  1    5    5    0  502 +9.3142328539e+01 +2.6863710154e+01 +6.2796104940e+01 1.1559668284e+02 4.7000000000e+00 0.0000e+00 1.0000e+00
       13  1    6    6    0    0 +5.7349831416e-01 -2.9428630530e+01 +1.2648340856e+01 3.2036755791e+01 0.0000000000e+00 0.0000e+00 -1.0000e+00
      -14  1    6    6    0    0 -3.0354634728e+01 +3.8137783599e+01 +8.8436339249e+01 1.0097960431e+02 0.0000000000e+00 0.0000e+00 1.0000e+00
<mgrwt>
<rscale>  2 0.18715546E+03</rscale>
<asrwt>0</asrwt>
<pdfrwt beam="1">  1       21 0.46331122E-01 0.18722290E+03</pdfrwt>
<pdfrwt beam="2">  1       21 0.20723275E-01 0.18722290E+03</pdfrwt>
<totfact> 0.96589265E+04</totfact>
</mgrwt>
</event>
<event>
13      2 +1.4674046e+01 1.99893300e+02 7.54677100e-03 1.15031500e-01
       21 -1    0    0  504  502 +0.0000000000e+00 +0.0000000000e+00 +5.9463952242e+01 5.9463952242e+01 0.0000000000e+00 0.0000e+00 -1.0000e+00
       21 -1    0    0  501  503 -0.0000000000e+00 -0.0000000000e+00 -8.8054271164e+02 8.8054271164e+02 0.0000000000e+00 0.0000e+00 -1.0000e+00
        6  2    1    2  501    0 +8.6052743731e+00 -9.0814848277e+01 -5.6238527530e+02 5.9547879684e+02 1.7319472334e+02 0.0000e+00 0.0000e+00
       24  2    3    3    0    0 +3.6091698641e+00 -3.7557485705e+01 -9.3234952108e+01 1.2326547271e+02 7.1260294900e+01 0.0000e+00 0.0000e+00
       -6  2    1    2    0  502 +8.8901828488e+00 +1.0495158999e+02 -2.3628580162e+02 3.1277817848e+02 1.7579913906e+02 0.0000e+00 0.0000e+00
      -24  2    5    5    0    0 +1.6598681090e+00 +8.0877187850e+01 -3.9725133249e+01 1.1456102322e+02 7.0726707493e+01 0.0000e+00 0.0000e+00
        5  1    3    3  501    0 +4.9961045090e+00 -5.3257362572e+01 -4.6915032320e+02 4.7221332413e+02 4.7000000000e+00 0.0000e+00 -1.0000e+00
      -13  1    4    4    0    0 +2.9676007597e+01 -3.1718287516e+01 -2.5300099302e+01 5.0267387186e+01 0.0000000000e+00 0.0000e+00 1.0000e+00
       14  1    4    4    0    0 -2.6066837733e+01 -5.8391981895e+00 -6.7934852806e+01 7.2998085528e+01 0.0000000000e+00 0.0000e+00 -1.0000e+00
       -5  1    5    5    0  502 +7.2303147399e+00 +2.4074402142e+01 -1.9656066837e+02 1.9821715526e+02 4.7000000000e+00 0.0000e+00 1.0000e+00
       13  1    6    6    0    0 -3.3411304171e+01 +3.8106310720e+01 -9.6090956395e+00 5.1582369877e+01 0.0000000000e+00 0.0000e+00 -1.0000e+00
      -14  1    6    6    0    0 +3.5071172280e+01 +4.2770877130e+01 -3.0116037610e+01 6.2978653343e+01 0.0000000000e+00 0.0000e+00 1.0000e+00
       21  1    1    2  504  503 -1.7495457222e+01 -1.4136741716e+01 -2.2407682472e+01 3.1749688558e+01 0.0000000000e+00 0.0000e+00 1.0000e+00
<mgrwt>
<rscale>  3 0.19931918E+03</rscale>
<asrwt>0</asrwt>
<pdfrwt beam="1">  1       21 0.91483005E-02 0.19989330E+03</pdfrwt>
<pdfrwt beam="2">  1       21 0.13546811E+00 0.19989330E+03</pdfrwt>
<totfact> 0.36804601E+04</totfact>
</mgrwt>
</event>
<event>
14      3 +1.4674046e+01 3.17175600e+02 7.54677100e-03 1.07701000e-01
       21 -1    0    0  502  503 +0.0000000000e+00 +0.0000000000e+00 +9.6532067644e+02 9.6532067644e+02 0.0000000000e+00 0.0000e+00 1.0000e+00
        2 -1    0    0  504    0 -0.0000000000e+00 -0.0000000000e+00 -1.1069999296e+03 1.1069999296e+03 0.0000000000e+00 0.0000e+00 -1.0000e+00
        6  2    1    2  501    0 -9.6726251031e+01 -2.5259972134e+02 +8.1582689296e+02 8.7671188197e+02 1.7288035703e+02 0.0000e+00 0.0000e+00
       24  2    3    3    0    0 -7.7005447966e+01 -6.1431004579e+01 +2.8645468767e+02 3.1351439434e+02 8.0816953839e+01 0.0000e+00 0.0000e+00
       -6  2    1    2    0  503 -7.1863562924e+01 +2.5651013328e+02 -1.8829332205e+02 3.6958542768e+02 1.7371584001e+02 0.0000e+00 0.0000e+00
      -24  2    5    5    0    0 -1.0529695597e+02 +1.7408662766e+02 -1.7345942134e+02 2.7928835874e+02 8.0747839649e+01 0.0000e+00 0.0000e+00
        5  1    3    3  501    0 -1.9720803065e+01 -1.9116871676e+02 +5.2937220529e+02 5.6319748763e+02 4.7000000000e+00 0.0000e+00 -1.0000e+00
      -13  1    4    4    0    0 -4.8882698592e+01 -7.4513776932e+01 +1.5831315469e+02 1.8167244183e+02 0.0000000000e+00 0.0000e+00 1.0000e+00
       14  1    4    4    0    0 -2.8122749374e+01 +1.3082772354e+01 +1.2814153298e+02 1.3184195250e+02 0.0000000000e+00 0.0000e+00 -1.0000e+00
       -5  1    5    5    0  503 +3.3433393043e+01 +8.2423505617e+01 -1.4833900710e+01 9.0297068938e+01 4.7000000000e+00 0.0000e+00 1.0000e+00
       13  1    6    6    0    0 -1.1308811182e+01 +5.5284986753e+01 -9.0291787615e+01 1.0647500120e+02 0.0000000000e+00 0.0000e+00 -1.0000e+00
      -14  1    6    6    0    0 -9.3988144785e+01 +1.1880164091e+02 -8.3167633729e+01 1.7281335754e+02 0.0000000000e+00 0.0000e+00 1.0000e+00
       21  1    1    2  504  501 +4.4698338206e+01 -4.5576241600e+01 -2.2087038960e+01 6.7549778140e+01 0.0000000000e+00 0.0000e+00 1.0000e+00
        2  1    1    2  502    0 +1.2389147575e+02 +4.1665829662e+01 -7.4712578506e+02 7.5847351821e+02 0.0000000000e+00 0.0000e+00 -1.0000e+00
<mgrwt>
<rscale>  4 0.31706131E+03</rscale>
<asrwt>0</asrwt>
<pdfrwt beam="1">  1       21 0.14851087E+00 0.31717558E+03</pdfrwt>
<pdfrwt beam="2">  1        2 0.17030768E+00 0.31717558E+03</pdfrwt>
<totfact> 0.80501880E+01</totfact>
</mgrwt>
</event>
<event>
12      1 +1.4674046e+01 2.51235100e+02 7.54677100e-03 1.11264300e-01
       21 -1    0    0  501  502 +0.0000000000e+00 +0.0000000000e+00 +1.1722539934e+02 1.1722539934e+02 0.0000000000e+00 0.0000e+00 -1.0000e+00
       21 -1    0    0  502  503 -0.0000000000e+00 -0.0000000000e+00 -5.6657957461e+02 5.6657957461e+02 0.0000000000e+00 0.0000e+00 1.0000e+00
        6  2    1    2  501    0 +7.2220890555e+01 -1.6762505419e+02 -1.4604566732e+02 2.8995837783e+02 1.7155905136e+02 0.0000e+00 0.0000e+00
       24  2    3    3    0    0 +1.1457895233e+02 -1.0989974600e+02 -9.9590170432e+01 2.0447960974e+02 8.1776636420e+01 0.0000e+00 0.0000e+00
       -6  2    1    2    0  503 -7.2220890555e+01 +1.6762505419e+02 -3.0330850795e+02 3.9384659611e+02 1.7264146215e+02 0.0000e+00 0.0000e+00
      -24  2    5    5    0    0 -8.9653980645e+01 +7.5390218349e+01 -2.4492501274e+02 2.8320347574e+02 8.0587998713e+01 0.0000e+00 0.0000e+00
        5  1    3    3  501    0 -4.2358061773e+01 -5.7725308194e+01 -4.6455496892e+01 8.5478768093e+01 4.7000000000e+00 0.0000e+00 -1.0000e+00
      -13  1    4    4    0    0 +5.9126135504e+01 -2.1949497096e+01 -3.9225705847e+00 6.3190718325e+01 0.0000000000e+00 0.0000e+00 1.0000e+00
       14  1    4    4    0    0 +5.5452816823e+01 -8.7950248903e+01 -9.5667599847e+01 1.4128889141e+02 0.0000000000e+00 0.0000e+00 -1.0000e+00
       -5  1    5    5    0  503 +1.7433090091e+01 +9.2234835845e+01 -5.8383495200e+01 1.1064312037e+02 4.7000000000e+00 0.0000e+00 1.0000e+00
       13  1    6    6    0    0 -2.4409752446e+00 +2.3106962465e+01 -6.6963846931e+00 2.4181224999e+01 0.0000000000e+00 0.0000e+00 -1.0000e+00
      -14  1    6    6    0    0 -8.7213005401e+01 +5.2283255884e+01 -2.3822862805e+02 2.5902225074e+02 0.0000000000e+00 0.0000e+00 1.0000e+00
<mgrwt>
<rscale>  2 0.25104928E+03</rscale>
<asrwt>0</asrwt>
<pdfrwt beam="1">  1       21 0.18034677E-01 0.25123513E+03</pdfrwt>
<pdfrwt beam="2">  1       21 0.87166088E-01 0.25123513E+03</pdfrwt>
<totfact> 0.30712699E+04</totfact>
</mgrwt>
</event>
<event>
12      1 +1.4674046e+01 3.19432900e+02 7.54677100e-03 1.07594300e-01
       21 -1    0    0  503  502 +0.0000000000e+00 +0.0000000000e+00 +2.7406347327e+02 2.7406347327e+02 0.0000000000e+00 0.0000e+00 1.0000e+00
       21 -1    0    0  501  503 -0.0000000000e+00 -0.0000000000e+00 -4.6283042331e+02 4.6283042331e+02 0.0000000000e+00 0.0000e+00 -1.0000e+00
        6  2    1    2  501    0 -2.1532324454e+02 +1.6070309021e+02 -2.5765258036e+02 4.1039276126e+02 1.7276511074e+02 0.0000e+00 0.0000e+00
       24  2    3    3    0    0 -2.0662717147e+02 +8.5335737182e+01 -1.5886955076e+02 2.8574912313e+02 8.0225003467e+01 0.0000e+00 0.0000e+00
       -6  2    1    2    0  502 +2.1532324454e+02 -1.6070309021e+02 +6.8885630321e+01 3.2650113532e+02 1.7224453101e+02 0.0000e+00 0.0000e+00
      -24  2    5    5    0    0 +1.6908190268e+02 -1.8715692827e+02 +4.8809270176e+01 2.6937655671e+02 8.1024556983e+01 0.0000e+00 0.0000e+00
        5  1    3    3  501    0 -8.6960730646e+00 +7.5367353027e+01 -9.8783029597e+01 1.2464363813e+02 4.7000000000e+00 0.0000e+00 -1.0000e+00
      -13  1    4    4    0    0 -1.6229398526e+02 +8.6154140878e+01 -1.5647680475e+02 2.4134387099e+02 0.0000000000e+00 0.0000e+00 1.0000e+00
       14  1    4    4    0    0 -4.4333186206e+01 -8.1840369561e-01 -2.3927460141e+00 4.4405252136e+01 0.0000000000e+00 0.0000e+00 -1.0000e+00
       -5  1    5    5    0  502 +4.6241341858e+01 +2.6453838065e+01 +2.0076360145e+01 5.7124578614e+01 4.7000000000e+00 0.0000e+00 1.0000e+00
       13  1    6    6    0    0 +9.9718919507e+01 -1.4266569219e+02 +9.1531046233e-01 1.7406378264e+02 0.0000000000e+00 0.0000e+00 -1.0000e+00
      -14  1    6    6    0    0 +6.9362983170e+01 -4.4491236088e+01 +4.7893959713e+01 9.5312774065e+01 0.0000000000e+00 0.0000e+00 1.0000e+00
<mgrwt>
<rscale>  2 0.31936255E+03</rscale>
<asrwt>0</asrwt>
<pdfrwt beam="1">  1       21 0.42163611E-01 0.31943288E+03</pdfrwt>
<pdfrwt beam="2">  1       21 0.71204680E-01 0.31943288E+03</pdfrwt>
<totfact> 0.90042010E+03</totfact>
</mgrwt>
</event>
<event>
13      2 +1.4674046e+01 2.04918900e+02 7.54677100e-03 1.14565400e-01
        2 -1    0    0  501    0 -0.0000000000e+00 +0.0000000000e+00 +7.5414941434e+02 7.5414941434e+02 0.0000000000e+00 0.0000e+00 1.0000e+00
       21 -1    0    0  502  503 +0.0000000000e+00 -0.0000000000e+00 -1.2117962927e+02 1.2117962927e+02 0.0000000000e+00 0.0000e+00 1.0000e+00
        6  2    1    2  501    0 +3.3529966472e+01 +3.2103803548e+01 +5.3430001610e+01 1.8503432981e+02 1.7096205802e+02 0.0000e+00 0.0000e+00
       24  2    3    3    0    0 +4.8755849262e+01 -1.4527477089e+01 +8.3720614858e+01 1.2719044429e+02 8.1117737510e+01 0.0000e+00 0.0000e+00
       -6  2    1    2    0  503 -1.3896693416e+02 +7.1373433277e+00 +5.1487642797e+02 5.6053273436e+02 1.7244262740e+02 0.0000e+00 0.0000e+00
      -24  2    5    5    0    0 +1.3709110288e+00 -2.7082589245e-01 +1.8828271112e+02 2.0495554492e+02 8.0959516682e+01 0.0000e+00 0.0000e+00
        5  1    3    3  501    0 -1.5225882790e+01 +4.6631280638e+01 -3.0290613249e+01 5.7843885516e+01 4.7000000000e+00 0.0000e+00 -1.0000e+00
      -13  1    4    4    0    0 +2.9617673536e+01 -3.0937012987e+01 +3.3509787751e+00 4.2959683623e+01 0.0000000000e+00 0.0000e+00 1.0000e+00
       14  1    4    4    0    0 +1.9138175726e+01 +1.6409535897e+01 +8.0369636083e+01 8.4230760667e+01 0.0000000000e+00 0.0000e+00 -1.0000e+00
       -5  1    5    5    0  503 -1.4033784519e+02 +7.4081692201e+00 +3.2659371685e+02 3.5557718944e+02 4.7000000000e+00 0.0000e+00 1.0000e+00
       13  1    6    6    0    0 -2.1779368429e+01 +6.2297071144e+00 +9.5019009343e+00 2.4564939675e+01 0.0000000000e+00 0.0000e+00 -1.0000e+00
      -14  1    6    6    0    0 +2.3150279457e+01 -6.5005330069e+00 +1.7878081019e+02 1.8039060525e+02 0.0000000000e+00 0.0000e+00 1.0000e+00
        2  1    1    2  502    0 +1.0543696769e+02 -3.9241146876e+01 +6.4663355490e+01 1.2976197944e+02 0.0000000000e+00 0.0000e+00 1.0000e+00
<mgrwt>
<rscale>  3 0.20491891E+03</rscale>
<asrwt>0</asrwt>
<pdfrwt beam="2">  1       21 0.18643020E-01 0.20491891E+03</pdfrwt>
<pdfrwt beam="1">  1        2 0.11602298E+00 0.20491891E+03</pdfrwt>
<totfact> 0.12668939E+04</totfact>
</mgrwt>
</event>
<event>
14      3 +1.4674046e+01 1.89666900e+02 7.54677100e-03 1.15988500e-01
       21 -1    0    0  505  502 +0.0000000000e+00 +0.0000000000e+00 +6.7004140765e+02 6.7004140765e+02 0.0000000000e+00 0.0000e+00 1.0000e+00
       21 -1    0    0  501  503 -0.0000000000e+00 -0.0000000000e+00 -2.2078050872e+02 2.2078050872e+02 0.0000000000e+00 0.0000e+00 -1.0000e+00
        6  2    1    2  501    0 -9.8192471106e+01 +2.3590904592e+01 +2.6362931541e+02 3.2888289936e+02 1.6871648819e+02 0.0000e+00 0.0000e+00
       24  2    3    3    0    0 -6.3837480092e+01 +2.4831843522e+01 +5.8103271128e+01 1.2044861663e+02 8.0249827514e+01 0.0000e+00 0.0000e+00
       -6  2    1    2    0  504 -4.9834623254e+01 -6.9548708979e+01 -6.5950623917e+01 2.0486706165e+02 1.7407043275e+02 0.0000e+00 0.0000e+00
      -24  2    5    5    0    0 -9.9503834176e+01 -6.5675824125e+01 -4.6195157283e+01 1.5106745001e+02 8.0455298183e+01 0.0000e+00 0.0000e+00
        5  1    3    3  501    0 -3.4354991014e+01 -1.2409389304e+00 +2.0552604429e+02 2.0843428273e+02 4.7000000000e+00 0.0000e+00 -1.0000e+00
      -13  1    4    4    0    0 -4.8631767652e+00 +3.3129767851e+01 +5.0240429057e+01 6.0376590811e+01 0.0000000000e+00 0.0000e+00 1.0000e+00
       14  1    4    4    0    0 -5.8974303327e+01 -8.2979243287e+00 +7.8628420709e+00 6.0072025823e+01 0.0000000000e+00 0.0000e+00 -1.0000e+00
       -5  1    5    5    0  504 +4.9669210922e+01 -3.8728848541e+00 -1.9755466634e+01 5.3799611640e+01 4.7000000000e+00 0.0000e+00 1.0000e+00
       13  1    6    6    0    0 -6.2350452489e+01 -8.2197476421e+01 -3.3184363101e+01 1.0837530166e+02 0.0000000000e+00 0.0000e+00 -1.0000e+00
      -14  1    6    6    0    0 -3.7153381686e+01 +1.6521652296e+01 -1.3010794182e+01 4.2692148348e+01 0.0000000000e+00 0.0000e+00 1.0000e+00
       21  1    1    2  504  502 +1.0772333946e+02 +7.6712793172e+01 +2.7197786434e+02 3.0242541096e+02 0.0000000000e+00 0.0000e+00 1.0000e+00
       21  1    1    2  505  503 +4.0303754898e+01 -3.0754988785e+01 -2.0395656911e+01 5.4646544400e+01 0.0000000000e+00 0.0000e+00 -1.0000e+00
<mgrwt>
<rscale>  4 0.18842951E+03</rscale>
<asrwt>0</asrwt>
<pdfrwt beam="1">  1       21 0.10308329E+00 0.18966693E+03</pdfrwt>
<pdfrwt beam="2">  1       21 0.33966232E-01 0.18966693E+03</pdfrwt>
<totfact> 0.63915160E+03</totfact>
</mgrwt>
</event>
<event>
12      1 +1.4674046e+01 1.78013300e+02 7.54677100e-03 1.17121800e-01
       21 -1    0    0  503  502 +0.0000000000e+00 +0.0000000000e+00 +2.7332432361e+02 2.7332432361e+02 0.0000000000e+00 0.0000e+00 -1.0000e+00
       21 -1    0    0  501  503 -0.0000000000e+00 -0.0000000000e+00 -1.6909760511e+02 1.6909760511e+02 0.0000000000e+00 0.0000e+00 -1.0000e+00
        6  2    1    2  501    0 +1.5140383921e+01 +4.0643999217e+01 -7.6868277700e+01 1.8848468021e+02 1.6654301745e+02 0.0000e+00 0.0000e+00
       24  2    3    3    0    0 -1.3334935884e+01 -2.7143559046e+01 +3.0535142048e-01 8.1789526037e+01 7.5992368151e+01 0.0000e+00 0.0000e+00
       -6  2    1    2    0  502 -1.5140383921e+01 -4.0643999217e+01 +1.8109499620e+02 2.5393724851e+02 1.7264866821e+02 0.0000e+00 0.0000e+00
      -24  2    5    5    0    0 -6.3083309247e+01 -6.6236473768e+01 +1.0438533509e+02 1.5980988293e+02 7.9222005402e+01 0.0000e+00 0.0000e+00
        5  1    3    3  501    0 +2.8475319805e+01 +6.7787558264e+01 -7.7173629121e+01 1.0669515418e+02 4.7000000000e+00 0.0000e+00 -1.0000e+00
      -13  1    4    4    0    0 +2.0032160615e+01 -3.6129860982e+01 -1.5060394321e+01 4.3971238220e+01 0.0000000000e+00 0.0000e+00 1.0000e+00
       14  1    4    4    0    0 -3.3367096499e+01 +8.9863019360e+00 +1.5365745741e+01 3.7818287817e+01 0.0000000000e+00 0.0000e+00 -1.0000e+00
       -5  1    5    5    0  502 +4.7942925326e+01 +2.5592474551e+01 +7.6709661115e+01 9.4127365579e+01 4.7000000000e+00 0.0000e+00 1.0000e+00
       13  1    6    6    0    0 -2.8869135025e+01 -7.4532247113e+01 +9.3398274897e+01 1.2292973835e+02 0.0000000000e+00 0.0000e+00 -1.0000e+00
      -14  1    6    6    0    0 -3.4214174222e+01 +8.2957733453e+00 +1.0987060189e+01 3.6880144586e+01 0.0000000000e+00 0.0000e+00 1.0000e+00
<mgrwt>
<rscale>  2 0.17651568E+03</rscale>
<asrwt>0</asrwt>
<pdfrwt beam="1">  1       21 0.42049896E-01 0.17801328E+03</pdfrwt>
<pdfrwt beam="2">  1       21 0.26015016E-01 0.17801328E+03</pdfrwt>
<totfact> 0.76864469E+04</totfact>
</mgrwt>
</event>
<event>
12      1 +1.4674046e+01 2.05282400e+02 7.54677100e-03 1.14535700e-01
       -2 -1    0    0    0  501 -0.0000000000e+00 +0.0000000000e+00 +2.7299745294e+01 2.7299745294e+01 0.0000000000e+00 0.0000e+00 -1.0000e+00
        2 -1    0    0  502    0 +0.0000000000e+00 -0.0000000000e+00 -1.8153431485e+03 1.8153431485e+03 0.0000000000e+00 0.0000e+00 1.0000e+00
        6  2    1    2  502    0 -1.1023714688e+02 -9.0504256763e+00 -5.4448739389e+02 5.8255388793e+02 1.7512387468e+02 0.0000e+00 0.0000e+00
       24  2    3    3    0    0 -1.4232861958e+02 -2.3313109775e+01 -4.9162933791e+02 5.1891937796e+02 8.2322402098e+01 0.0000e+00 0.0000e+00
       -6  2    1    2    0  501 +1.1023714688e+02 +9.0504256763e+00 -1.2435560094e+03 1.2600890059e+03 1.7075894013e+02 0.0000e+00 0.0000e+00
      -24  2    5    5    0    0 +9.8457553791e+01 -1.0111085187e+01 -1.2217337068e+03 1.2283994934e+03 8.0845168223e+01 0.0000e+00 0.0000e+00
        5  1    3    3  502    0 +3.2091472700e+01 +1.4262684098e+01 -5.2858055972e+01 6.3634509968e+01 4.7000000000e+00 0.0000e+00 -1.0000e+00
      -13  1    4    4    0    0 -7.9290123209e+01 +1.0683757571e+01 -1.5146805423e+02 1.7129984754e+02 0.0000000000e+00 0.0000e+00 1.0000e+00
       14  1    4    4    0    0 -6.3038496367e+01 -3.3996867346e+01 -3.4016128368e+02 3.4761953042e+02 0.0000000000e+00 0.0000e+00 -1.0000e+00
       -5  1    5    5    0  501 +1.1779593085e+01 +1.9161510863e+01 -2.1822302606e+01 3.1689512506e+01 4.7000000000e+00 0.0000e+00 1.0000e+00
       13  1    6    6    0    0 +1.1920379932e+01 +1.7772330582e+01 -7.2961302993e+01 7.6034879670e+01 0.0000000000e+00 0.0000e+00 -1.0000e+00
      -14  1    6    6    0    0 +8.6537173859e+01 -2.7883415769e+01 -1.1487724038e+03 1.1523646137e+03 0.0000000000e+00 0.0000e+00 1.0000e+00
<mgrwt>
<rscale>  2 0.20528242E+03</rscale>
<asrwt>0</asrwt>
<pdfrwt beam="2">  1        2 0.27928362E+00 0.20528242E+03</pdfrwt>
<pdfrwt beam="1">  1       -2 0.41999599E-02 0.20528242E+03</pdfrwt>
<totfact> 0.23760802E+03</totfact>
</mgrwt>
</event>
<event>
13      2 +1.4674046e+01 4.11349900e+02 7.54677100e-03 1.03991900e-01
        2 -1    0    0  503    0 -0.0000000000e+00 +0.0000000000e+00 +1.1937183508e+03 1.1937183508e+03 0.0000000000e+00 0.0000e+00 1.0000e+00
       21 -1    0    0  501  503 +0.0000000000e+00 -0.0000000000e+00 -3.2860006712e+02 3.2860006712e+02 0.0000000000e+00 0.0000e+00 -1.0000e+00
        6  2    1    2  501    0 +4.0152471604e+01 -2.7847589777e+01 -6.6546430953e+01 1.9148759424e+02 1.7277546713e+02 0.0000e+00 0.0000e+00
       24  2    3    3    0    0 -3.6916507314e+01 -6.3953716647e+00 -6.6043343743e+01 1.1134916232e+02 8.1444357731e+01 0.0000e+00 0.0000e+00
       -6  2    1    2    0  502 +1.3998940507e+02 -5.5195869996e+01 -1.2031324019e+02 2.6031462605e+02 1.7505659420e+02 0.0000e+00 0.0000e+00
      -24  2    5    5    0    0 +2.2128785666e+01 -2.6697333247e+01 +9.7230787771e-01 8.8746661752e+01 8.1685946355e+01 0.0000e+00 0.0000e+00
        5  1    3    3  501    0 +7.7068978918e+01 -2.1452218112e+01 -5.0308721024e-01 8.0138431917e+01 4.7000000000e+00 0.0000e+00 -1.0000e+00
      -13  1    4    4    0    0 +2.4697920203e+01 -1.1556955228e+01 -1.4685074320e+01 3.0970984555e+01 0.0000000000e+00 0.0000e+00 1.0000e+00
       14  1    4    4    0    0 -6.1614427517e+01 +5.1615835635e+00 -5.1358269422e+01 8.0378177767e+01 0.0000000000e+00 0.0000e+00 -1.0000e+00
       -5  1    5    5    0  502 +1.1786061941e+02 -2.8498536749e+01 -1.2128554807e+02 1.7156796430e+02 4.7000000000e+00 0.0000e+00 1.0000e+00
       13  1    6    6    0    0 +4.6404826189e+01 -3.7282929184e+01 +1.0799862122e+01 6.0498443980e+01 0.0000000000e+00 0.0000e+00 -1.0000e+00
      -14  1    6    6    0    0 -2.4276040523e+01 +1.0585595938e+01 -9.8275542443e+00 2.8248217771e+01 0.0000000000e+00 0.0000e+00 1.0000e+00
        2  1    1    2  502    0 -1.8014187668e+02 +8.3043459773e+01 +1.0519779548e+03 1.0705161976e+03 0.0000000000e+00 0.0000e+00 1.0000e+00
<mgrwt>
<rscale>  3 0.41134986E+03</rscale>
<asrwt>0</asrwt>
<pdfrwt beam="2">  1       21 0.50553857E-01 0.41134986E+03</pdfrwt>
<pdfrwt beam="1">  1        2 0.18364897E+00 0.41134986E+03</pdfrwt>
<totfact> 0.87350182E+02</totfact>
</mgrwt>
</event>
<event>
13      2 +1.4674046e+01 1.97681100e+02 7.54677100e-03 1.15230500e-01
       21 -1    0    0  504  502 +0.0000000000e+00 +0.0000000000e+00 +4.1374634228e+02 4.1374634228e+02 0.0000000000e+00 0.0000e+00 -1.0000e+00
       21 -1    0    0  501  503 -0.0000000000e+00 -0.0000000000e+00 -1.4807657501e+02 1.4807657501e+02 0.0000000000e+00 0.0000e+00 -1.0000e+00
        6  2    1    2  501    0 +8.2916628796e+01 +7.1960335398e+00 +2.8981208457e+01 1.9341118491e+02 1.7216569279e+02 0.0000e+00 0.0000e+00
       24  2    3    3    0    0 +1.8842296311e+01 +5.7287714346e+01 +4.5078765908e+01 1.1036952112e+02 8.0699576890e+01 0.0000e+00 0.0000e+00
       -6  2    1    2    0  502 -1.0303516929e+02 +4.5970432135e+01 +1.2492287226e+02 2.4302035535e+02 1.7528160874e+02 0.0000e+00 0.0000e+00
      -24  2    5    5    0    0 -1.1476205635e+02 -1.6567208389e+01 +1.0557305612e+02 1.7634965904e+02 8.0676701045e+01 0.0000e+00 0.0000e+00
        5  1    3    3  501    0 +6.4074332485e+01 -5.0091680806e+01 -1.6097557451e+01 8.3041663792e+01 4.7000000000e+00 0.0000e+00 -1.0000e+00
      -13  1    4    4    0    0 -1.4933312915e+01 +5.4200876294e+01 +2.9678384830e+00 5.6298729034e+01 0.0000000000e+00 0.0000e+00 1.0000e+00
       14  1    4    4    0    0 +3.3775609226e+01 +3.0868380526e+00 +4.2110927425e+01 5.4070792081e+01 0.0000000000e+00 0.0000e+00 -1.0000e+00
       -5  1    5    5    0  502 +1.1726887068e+01 +6.2537640525e+01 +1.9349816138e+01 6.6670696316e+01 4.7000000000e+00 0.0000e+00 1.0000e+00
       13  1    6    6    0    0 -4.1032861182e+01 +2.5301111767e+01 +1.1214527136e+01 4.9493510406e+01 0.0000000000e+00 0.0000e+00 -1.0000e+00
      -14  1    6    6    0    0 -7.3729195172e+01 -4.1868320157e+01 +9.4358528984e+01 1.2685614863e+02 0.0000000000e+00 0.0000e+00 1.0000e+00
       21  1    1    2  504  503 +2.0118540490e+01 -5.3166465675e+01 +1.1176568655e+02 1.2539137703e+02 0.0000000000e+00 0.0000e+00 -1.0000e+00
<mgrwt>
<rscale>  3 0.19698805E+03</rscale>
<asrwt>0</asrwt>
<pdfrwt beam="1">  1       21 0.63653283E-01 0.19768106E+03</pdfrwt>
<pdfrwt beam="2">  1       21 0.22781012E-01 0.19768106E+03</pdfrwt>
<totfact> 0.41115835E+04</totfact>
</mgrwt>
</event>
<event>
13      2 +1.4674046e+01 2.12263300e+02 7.54677100e-03 1.13985900e-01
       21 -1    0    0  501  502 +0.0000000000e+00 +0.0000000000e+00 +4.2935162163e+02 4.2935162163e+02 0.0000000000e+00 0.0000e+00 1.0000e+00
       21 -1    0    0  504  503 -0.0000000000e+00 -0.0000000000e+00 -6.3308470372e+02 6.3308470372e+02 0.0000000000e+00 0.0000e+00 1.0000e+00
       -6  2    1    2    0  503 +9.8932220884e+01 +5.7837668472e+01 +3.2196464422e+02 3.8494097550e+02 1.7715965191e+02 0.0000e+00 0.0000e+00
      -24  2    3    3    0    0 -1.2512938434e+01 +1.5247817039e+01 +1.8234883836e+02 2.0123310352e+02 8.2792472777e+01 0.0000e+00 0.0000e+00
        6  2    1    2  501    0 -9.9723590931e+01 -8.3705662192e+01 -8.3967161481e+01 2.3500730337e+02 1.7671025992e+02 0.0000e+00 0.0000e+00
       24  2    5    5    0    0 -2.4195219779e+01 -9.5053862703e+01 -8.9988648574e+01 1.5825012253e+02 8.5583286537e+01 0.0000e+00 0.0000e+00
        5  1    5    5  501    0 -7.5528371151e+01 +1.1348200511e+01 +6.0214870933e+00 7.6757180839e+01 4.7000000000e+00 0.0000e+00 -1.0000e+00
      -13  1    6    6    0    0 -4.9024086648e+01 -9.0702575759e+01 -6.0847336882e+01 1.1971932478e+02 0.0000000000e+00 0.0000e+00 1.0000e+00
       14  1    6    6    0    0 +2.4828866869e+01 -4.3512869444e+00 -2.9141311692e+01 3.8530797750e+01 0.0000000000e+00 0.0000e+00 -1.0000e+00
       -5  1    3    3    0  503 +1.1144515932e+02 +4.2589851433e+01 +1.3961580586e+02 1.8370787198e+02 4.7000000000e+00 0.0000e+00 1.0000e+00
       13  1    4    4    0    0 -1.7228234003e+01 +3.5787069671e+01 +3.6732976933e+01 5.4100258751e+01 0.0000000000e+00 0.0000e+00 -1.0000e+00
      -14  1    4    4    0    0 +4.7152955686e+00 -2.0539252633e+01 +1.4561586142e+02 1.4713284477e+02 0.0000000000e+00 0.0000e+00 1.0000e+00
       21  1    1    2  504  502 +7.9137004700e-01 +2.5867993720e+01 -4.4173056483e+02 4.4248804648e+02 0.0000000000e+00 0.0000e+00 1.0000e+00
<mgrwt>
<rscale>  3 0.21216953E+03</rscale>
<asrwt>0</asrwt>
<pdfrwt beam="1">  1       21 0.66054096E-01 0.21226333E+03</pdfrwt>
<pdfrwt beam="2">  1       21 0.97397647E-01 0.21226333E+03</pdfrwt>
<totfact> 0.18064162E+03</totfact>
</mgrwt>
</event>
<event>
13      2 +1.4674046e+01 1.99902100e+02 7.54677100e-03 1.15329800e-01
       21 -1    0    0  501  503 +0.0000000000e+00 +0.0000000000e+00 +4.4177996790e+02 4.4177996790e+02 0.0000000000e+00 0.0000e+00 -1.0000e+00
        2 -1    0    0  503    0 -0.0000000000e+00 -0.0000000000e+00 -1.2607949440e+03 1.2607949440e+03 0.0000000000e+00 0.0000e+00 -1.0000e+00
       -6  2    1    2    0  502 +7.5417497090e+01 -1.6403950583e+02 -3.4912996603e+02 4.2980864777e+02 1.7391659545e+02 0.0000e+00 0.0000e+00
      -24  2    3    3    0    0 +6.1493358405e+01 -3.0241576469e+01 -2.1608003317e+02 2.4054654862e+02 8.0474065649e+01 0.0000e+00 0.0000e+00
        6  2    1    2  501    0 +1.1676723220e+01 +5.3531000594e+01 +3.7075609272e+02 4.2043123809e+02 1.9052672196e+02 0.0000e+00 0.0000e+00
       24  2    5    5    0    0 -1.3859217573e+01 -1.3300161574e+01 +6.4592237043e+01 1.0598428703e+02 8.1801832504e+01 0.0000e+00 0.0000e+00
        5  1    5    5  501    0 +2.5535940794e+01 +6.6831162167e+01 +3.0616385567e+02 3.1444695106e+02 4.7000000000e+00 0.0000e+00 -1.0000e+00
      -13  1    6    6    0    0 +1.8550464917e+01 -3.5781986284e+01 +4.9302897999e+01 6.3680813768e+01 0.0000000000e+00 0.0000e+00 1.0000e+00
       14  1    6    6    0    0 -3.2409682491e+01 +2.2481824710e+01 +1.5289339044e+01 4.2303473260e+01 0.0000000000e+00 0.0000e+00 -1.0000e+00
       -5  1    3    3    0  502 +1.3924138685e+01 -1.3379792936e+02 -1.3304993286e+02 1.8926209915e+02 4.7000000000e+00 0.0000e+00 1.0000e+00
       13  1    4    4    0    0 +7.9779786095e+01 -3.2819512344e+01 -1.6427576445e+02 1.8554908096e+02 0.0000000000e+00 0.0000e+00 -1.0000e+00
      -14  1    4    4    0    0 -1.8286427690e+01 +2.5779358756e+00 -5.1804268720e+01 5.4997467657e+01 0.0000000000e+00 0.0000e+00 1.0000e+00
        2  1    1    2  502    0 -8.7094220310e+01 +1.1050850524e+02 -8.4064110273e+02 8.5233502600e+02 0.0000000000e+00 0.0000e+00 -1.0000e+00
<mgrwt>
<rscale>  3 0.19583927E+03</rscale>
<asrwt>0</asrwt>
<pdfrwt beam="1">  1       21 0.67966150E-01 0.19990208E+03</pdfrwt>
<pdfrwt beam="2">  1        2 0.19396845E+00 0.19990208E+03</pdfrwt>
<totfact> 0.46454311E+02</totfact>
</mgrwt>
</event>
<event>
14      3 +1.4674046e+01 1.96712500e+02 7.54677100e-03 1.15260600e-01
       21 -1    0    0  504  502 +0.0000000000e+00 +0.0000000000e+00 +1.3891946475e+03 1.3891946475e+03 0.0000000000e+00 0.0000e+00 -1.0000e+00
       21 -1    0    0  502  503 -0.0000000000e+00 -0.0000000000e+00 -6.2354013026e+02 6.2354013026e+02 0.0000000000e+00 0.0000e+00 1.0000e+00
       -6  2    1    2    0  503 -7.2844443077e+00 -9.7278521810e+01 -5.3695908400e+02 5.7244257112e+02 1.7276939950e+02 0.0000e+00 0.0000e+00
      -24  2    3    3    0    0 -2.9075450015e+01 +1.1396725484e+01 -2.6548022217e+02 2.7917133194e+02 8.0508490691e+01 0.0000e+00 0.0000e+00
        6  2    1    2  501    0 +6.9392586061e+01 +5.3510105368e+01 +7.2325220969e+01 2.0705931774e+02 1.7310101415e+02 0.0000e+00 0.0000e+00
       24  2    5    5    0    0 +9.7723805479e+01 +4.5696964472e+01 +4.6000664632e+00 1.3308303967e+02 7.7793188120e+01 0.0000e+00 0.0000e+00
        5  1    5    5  501    0 -2.8331219419e+01 +7.8131408965e+00 +6.7725154505e+01 7.3976278071e+01 4.7000000000e+00 0.0000e+00 -1.0000e+00
      -13  1    6    6    0    0 +6.4549224639e+01 -1.2291814768e+01 +7.9688638803e+00 6.6190587725e+01 0.0000000000e+00 0.0000e+00 1.0000e+00
       14  1    6    6    0    0 +3.3174580840e+01 +5.7988779239e+01 -3.3687974170e+00 6.6892451948e+01 0.0000000000e+00 0.0000e+00 -1.0000e+00
       -5  1    3    3    0  503 +2.1791005707e+01 -1.0867524729e+02 -2.7147886184e+02 2.9327123918e+02 4.7000000000e+00 0.0000e+00 1.0000e+00
       13  1    4    4    0    0 -3.9421718960e+01 -2.4544716660e+01 -1.1297525654e+02 1.2214713927e+02 0.0000000000e+00 0.0000e+00 -1.0000e+00
      -14  1    4    4    0    0 +1.0346268945e+01 +3.5941442144e+01 -1.5250496563e+02 1.5702419268e+02 0.0000000000e+00 0.0000e+00 1.0000e+00
       21  1    1    2  504  505 -1.4479053994e+01 +1.5580348713e+01 +1.4690432736e+02 1.4843608614e+02 0.0000000000e+00 0.0000e+00 1.0000e+00
       21  1    1    2  505  501 -4.7629087759e+01 +2.8188067728e+01 +1.0833840530e+03 1.0847968028e+03 0.0000000000e+00 0.0000e+00 -1.0000e+00
<mgrwt>
<rscale>  4 0.19663947E+03</rscale>
<asrwt>0</asrwt>
<pdfrwt beam="1">  1       21 0.21372225E+00 0.19671245E+03</pdfrwt>
<pdfrwt beam="2">  1       21 0.95929251E-01 0.19671245E+03</pdfrwt>
<totfact> 0.99007945E+01</totfact>
</mgrwt>
</event>
<event>
13      2 +1.4674046e+01 2.14074000e+02 7.54677100e-03 1.13870500e-01
       21 -1    0    0  504  502 +0.0000000000e+00 +0.0000000000e+00 +3.4475496198e+01 3.4475496198e+01 0.0000000000e+00 0.0000e+00 1.0000e+00
       21 -1    0    0  502  503 -0.0000000000e+00 -0.0000000000e+00 -1.6705220379e+03 1.6705220379e+03 0.0000000000e+00 0.0000e+00 1.0000e+00
       -6  2    1    2    0  503 -1.1110855899e+02 +4.4814571322e+01 -4.9370206726e+02 5.3712030640e+02 1.7436465999e+02 0.0000e+00 0.0000e+00
      -24  2    3    3    0    0 -5.5224625801e+01 +5.7151776927e+01 -1.4284695337e+02 1.8159728103e+02 7.9096368370e+01 0.0000e+00 0.0000e+00
        6  2    1    2  501    0 +1.2381365096e+02 -2.7455728801e+01 -1.0972758463e+03 1.1179379644e+03 1.7230023843e+02 0.0000e+00 0.0000e+00
       24  2    5    5    0    0 +1.2109997390e+02 -7.4058409023e+01 -7.6898311997e+02 7.8630959105e+02 8.2449272626e+01 0.0000e+00 0.0000e+00
        5  1    5    5  501    0 +2.7136770619e+00 +4.6602680222e+01 -3.2829272638e+02 3.3162837339e+02 4.7000000000e+00 0.0000e+00 -1.0000e+00
      -13  1    6    6    0    0 +5.9917399620e+01 +3.3031025888e-01 -1.8569464492e+02 1.9512228226e+02 0.0000000000e+00 0.0000e+00 1.0000e+00
       14  1    6    6    0    0 +6.1182574281e+01 -7.4388719282e+01 -5.8328847505e+02 5.9118730880e+02 0.0000000000e+00 0.0000e+00 -1.0000e+00
       -5  1    3    3    0  503 -5.5883933186e+01 -1.2337205604e+01 -3.5085511388e+02 3.5552302537e+02 4.7000000000e+00 0.0000e+00 1.0000e+00
       13  1    4    4    0    0 +1.5550016879e+01 -6.3679170832e+00 -2.5756675415e+01 3.0753206684e+01 0.0000000000e+00 0.0000e+00 -1.0000e+00
      -14  1    4    4    0    0 -7.0774642680e+01 +6.3519694010e+01 -1.1709027796e+02 1.5084407435e+02 0.0000000000e+00 0.0000e+00 1.0000e+00
       21  1    1    2  504  501 -1.2705091976e+01 -1.7358842522e+01 -4.5068628142e+01 4.9939263295e+01 0.0000000000e+00 0.0000e+00 1.0000e+00
<mgrwt>
<rscale>  3 0.21365327E+03</rscale>
<asrwt>0</asrwt>
<pdfrwt beam="1">  1       21 0.53039234E-02 0.21407404E+03</pdfrwt>
<pdfrwt beam="2">  1       21 0.25700335E+00 0.21407404E+03</pdfrwt>
<totfact> 0.14441307E+04</totfact>
</mgrwt>
</event>
<event>
12      1 +1.4674046e+01 1.72714600e+02 7.54677100e-03 1.17520500e-01
       21 -1    0    0  503  502 +0.0000000000e+00 +0.0000000000e+00 +6.0875291906e+01 6.0875291906e+01 0.0000000000e+00 0.0000e+00 1.0000e+00
       21 -1    0    0  501  503 -0.0000000000e+00 -0.0000000000e+00 -4.9570944646e+02 4.9570944646e+02 0.0000000000e+00 0.0000e+00 1.0000e+00
        6  2    1    2  501    0 +1.6647912967e+01 +7.7084490476e+00 -2.5192109120e+02 3.0544161706e+02 1.7173750915e+02 0.0000e+00 0.0000e+00
       24  2    3    3    0    0 -3.3033645497e+01 -9.6760439979e+00 -5.8683432942e+01 1.0510849344e+02 8.0119925923e+01 0.0000e+00 0.0000e+00
       -6  2    1    2    0  502 -1.6647912967e+01 -7.7084490476e+00 -1.8291306335e+02 2.5114312130e+02 1.7111138314e+02 0.0000e+00 0.0000e+00
      -24  2    5    5    0    0 +5.4650587050e+01 -4.0315794262e+00 -7.9343871169e+01 1.2526356361e+02 7.9953550134e+01 0.0000e+00 0.0000e+00
        5  1    3    3  501    0 +4.9681558464e+01 +1.7384493045e+01 -1.9323765826e+02 2.0033312362e+02 4.7000000000e+00 0.0000e+00 -1.0000e+00
      -13  1    4    4    0    0 -3.7545875000e-01 +2.6150904719e+01 +3.3632173430e+00 2.6368959361e+01 0.0000000000e+00 0.0000e+00 1.0000e+00
       14  1    4    4    0    0 -3.2658186747e+01 -3.5826948717e+01 -6.2046650285e+01 7.8739534083e+01 0.0000000000e+00 0.0000e+00 -1.0000e+00
       -5  1    5    5    0  502 -7.1298500016e+01 -3.6768696214e+00 -1.0356919218e+02 1.2587955769e+02 4.7000000000e+00 0.0000e+00 1.0000e+00
       13  1    6    6    0    0 +2.3763142266e+01 +1.3313203474e+01 +1.0107523365e+01 2.9053232964e+01 0.0000000000e+00 0.0000e+00 -1.0000e+00
      -14  1    6    6    0    0 +3.0887444784e+01 -1.7344782900e+01 -8.9451394534e+01 9.6210330647e+01 0.0000000000e+00 0.0000e+00 1.0000e+00
<mgrwt>
<rscale>  2 0.17255878E+03</rscale>
<asrwt>0</asrwt>
<pdfrwt beam="1">  1       21 0.93654295E-02 0.17271464E+03</pdfrwt>
<pdfrwt beam="2">  1       21 0.76262992E-01 0.17271464E+03</pdfrwt>
<totfact> 0.14049735E+05</totfact>
</mgrwt>
</event>
<event>
12      1 +1.4674046e+01 2.43506600e+02 7.54677100e-03 1.11754200e-01
       21 -1    0    0  503  502 +0.0000000000e+00 +0.0000000000e+00 +1.0121219773e+02 1.0121219773e+02 0.0000000000e+00 0.0000e+00 -1.0000e+00
       21 -1    0    0  501  503 -0.0000000000e+00 -0.0000000000e+00 -6.2123339112e+02 6.2123339112e+02 0.0000000000e+00 0.0000e+00 -1.0000e+00
        6  2    1    2  501    0 -1.7035538862e+02 +1.6559854246e+01 -1.7287908321e+02 2.9863464508e+02 1.7320590817e+02 0.0000e+00 0.0000e+00
       24  2    3    3    0    0 -1.0617750302e+02 +3.4587573488e+01 -3.0385185699e+01 1.4124849420e+02 8.0980955878e+01 0.0000e+00 0.0000e+00
       -6  2    1    2    0  502 +1.7035538862e+02 -1.6559854246e+01 -3.4714211017e+02 4.2381094377e+02 1.7266407907e+02 0.0000e+00 0.0000e+00
      -24  2    5    5    0    0 +1.9207185066e+02 -3.4574435159e+01 -3.2481382261e+02 3.8752358682e+02 8.1138915476e+01 0.0000e+00 0.0000e+00
        5  1    3    3  501    0 -6.4177885597e+01 -1.8027719242e+01 -1.4249389752e+02 1.5738615088e+02 4.7000000000e+00 0.0000e+00 -1.0000e+00
      -13  1    4    4    0    0 +9.6384730216e+00 +1.7809102376e+01 +3.5584481736e-01 2.0253170497e+01 0.0000000000e+00 0.0000e+00 1.0000e+00
       14  1    4    4    0    0 -1.1581597605e+02 +1.6778471112e+01 -3.0741030516e+01 1.2099532370e+02 0.0000000000e+00 0.0000e+00 -1.0000e+00
       -5  1    5    5    0  502 -2.1716462036e+01 +1.8014580913e+01 -2.2328287567e+01 3.6287356951e+01 4.7000000000e+00 0.0000e+00 1.0000e+00
       13  1    6    6    0    0 +1.7172914192e+02 -5.6853722011e+01 -2.7096854587e+02 3.2580238910e+02 0.0000000000e+00 0.0000e+00 -1.0000e+00
      -14  1    6    6    0    0 +2.0342708734e+01 +2.2279286852e+01 -5.3845276736e+01 6.1721197720e+01 0.0000000000e+00 0.0000e+00 1.0000e+00
<mgrwt>
<rscale>  2 0.24341029E+03</rscale>
<asrwt>0</asrwt>
<pdfrwt beam="1">  1       21 0.15571108E-01 0.24350662E+03</pdfrwt>
<pdfrwt beam="2">  1       21 0.95574367E-01 0.24350662E+03</pdfrwt>
<totfact> 0.32601461E+04</totfact>
</mgrwt>
</event>
<event>
14      3 +1.4674046e+01 2.00134200e+02 7.54677100e-03 1.15015200e-01
       21 -1    0    0  504  502 +0.0000000000e+00 +0.0000000000e+00 +2.2280493815e+02 2.2280493815e+02 0.0000000000e+00 0.0000e+00 -1.0000e+00
       21 -1    0    0  501  503 -0.0000000000e+00 -0.0000000000e+00 -8.1040866171e+02 8.1040866171e+02 0.0000000000e+00 0.0000e+00 -1.0000e+00
        6  2    1    2  501    0 -1.1848307672e+02 -1.4958130265e+01 -4.9972860736e+02 5.4295904235e+02 1.7553875790e+02 0.0000e+00 0.0000e+00
       24  2    3    3    0    0 -4.7001720206e+00 +1.6499698576e+01 -1.1078172846e+02 1.3646438186e+02 7.7817764594e+01 0.0000e+00 0.0000e+00
       -6  2    1    2    0  502 +9.1761867227e+01 -2.3134749244e+01 +1.5020082839e+02 2.4767416692e+02 1.7270421886e+02 0.0000e+00 0.0000e+00
      -24  2    5    5    0    0 +9.4436169642e+00 +2.5706336069e+01 +2.5895807107e+01 8.6494473890e+01 7.7850520693e+01 0.0000e+00 0.0000e+00
        5  1    3    3  501    0 -1.1378290470e+02 -3.1457828841e+01 -3.8894687890e+02 4.0649466049e+02 4.7000000000e+00 0.0000e+00 -1.0000e+00
      -13  1    4    4    0    0 +1.8258452264e+01 +1.3335586522e+01 -1.1100846828e+02 1.1328763823e+02 0.0000000000e+00 0.0000e+00 1.0000e+00
       14  1    4    4    0    0 -2.2958624284e+01 +3.1641120540e+00 +2.2673982328e-01 2.3176743625e+01 0.0000000000e+00 0.0000e+00 -1.0000e+00
       -5  1    5    5    0  505 +5.5515626499e+01 -2.9574652305e+01 +1.0623114085e+02 1.2354671234e+02 4.7000000000e+00 0.0000e+00 1.0000e+00
       13  1    6    6    0    0 +8.0629980052e+00 +9.1872366849e+00 +5.3181420706e+01 5.4568129554e+01 0.0000000000e+00 0.0000e+00 -1.0000e+00
      -14  1    6    6    0    0 +1.3806189590e+00 +1.6519099384e+01 -2.7285613599e+01 3.1926344336e+01 0.0000000000e+00 0.0000e+00 1.0000e+00
       21  1    1    2  504  503 +2.6721209497e+01 +3.8092879509e+01 -2.3807594459e+02 2.4258039059e+02 0.0000000000e+00 0.0000e+00 1.0000e+00
       21  1    5    5  505  502 +2.6802623764e+01 -1.9266433008e+01 +1.8073880433e+01 3.7632980687e+01 0.0000000000e+00 0.0000e+00 1.0000e+00
<mgrwt>
<rscale>  4 0.19951093E+03</rscale>
<asrwt>0</asrwt>
<pdfrwt beam="1">  1       21 0.34277683E-01 0.20013421E+03</pdfrwt>
<pdfrwt beam="2">  1       21 0.12467825E+00 0.20013421E+03</pdfrwt>
<totfact> 0.39129012E+03</totfact>
</mgrwt>
</event>
<event>
14      3 +1.4674046e+01 1.93930800e+02 7.54677100e-03 1.15496300e-01
        2 -1    0    0  504    0 +0.0000000000e+00 +0.0000000000e+00 +7.2313088642e+02 7.2313088642e+02 0.0000000000e+00 0.0000e+00 -1.0000e+00
       -2 -1    0    0    0  501 -0.0000000000e+00 -0.0000000000e+00 -6.9173508939e+01 6.9173508939e+01 0.0000000000e+00 0.0000e+00 1.0000e+00
       -6  2    1    2    0  503 -7.1022752502e+01 +9.1785712187e+01 +3.4319248603e+02 3.9272670566e+02 1.5160585257e+02 0.0000e+00 0.0000e+00
      -24  2    3    3    0    0 -6.4066785679e+01 +5.1229896590e+01 +3.2990848117e+02 3.4923286197e+02 7.9968309985e+01 0.0000e+00 0.0000e+00
        6  2    1    2  504    0 +3.5163045340e+01 -7.7484980493e+01 +2.9940272498e+02 3.5933432563e+02 1.7955167471e+02 0.0000e+00 0.0000e+00
       24  2    5    5    0    0 -1.0016412659e+01 -1.2324518631e+01 +5.2185880231e+01 9.8573580471e+01 8.2104582024e+01 0.0000e+00 0.0000e+00
        5  1    5    5  502    0 +2.5973508466e+01 -4.1216676083e+01 +1.8527372808e+02 1.9162954325e+02 4.7000000000e+00 0.0000e+00 -1.0000e+00
      -13  1    6    6    0    0 +1.8288823729e+01 -3.9955737322e+01 +2.4736775804e+01 5.0426680393e+01 0.0000000000e+00 0.0000e+00 1.0000e+00
       14  1    6    6    0    0 -2.8305236388e+01 +2.7631218691e+01 +2.7449104427e+01 4.8146900078e+01 0.0000000000e+00 0.0000e+00 -1.0000e+00
       -5  1    3    3    0  503 -6.9559668223e+00 +4.0555815597e+01 +1.3284004860e+01 4.3493843683e+01 4.7000000000e+00 0.0000e+00 1.0000e+00
       13  1    4    4    0    0 -7.6725100095e+01 +3.0454183108e+01 +1.8901446153e+02 2.0625388462e+02 0.0000000000e+00 0.0000e+00 -1.0000e+00
      -14  1    4    4    0    0 +1.2658314416e+01 +2.0775713482e+01 +1.4089401964e+02 1.4297897735e+02 0.0000000000e+00 0.0000e+00 1.0000e+00
       21  1    1    2  503  501 +3.5859707161e+01 -1.4300731694e+01 +1.1362166465e+01 4.0243364067e+01 0.0000000000e+00 0.0000e+00 1.0000e+00
       21  1    5    5  504  502 +1.9205949533e+01 -2.3943785779e+01 +6.1943116667e+01 6.9131201909e+01 0.0000000000e+00 0.0000e+00 1.0000e+00
<mgrwt>
<rscale>  4 0.19393077E+03</rscale>
<asrwt>0</asrwt>
<pdfrwt beam="1">  1        2 0.11125090E+00 0.19393077E+03</pdfrwt>
<pdfrwt beam="2">  1       -2 0.10642079E-01 0.19393077E+03</pdfrwt>
<totfact> 0.24000843E+03</totfact>
</mgrwt>
</event>
<event>
14      3 +1.4674046e+01 1.90686900e+02 7.54677100e-03 1.15865100e-01
       21 -1    0    0  505  502 +0.0000000000e+00 +0.0000000000e+00 +5.5819169218e+02 5.5819169218e+02 0.0000000000e+00 0.0000e+00 -1.0000e+00
       21 -1    0    0  501  503 -0.0000000000e+00 -0.0000000000e+00 -2.9041970439e+02 2.9041970439e+02 0.0000000000e+00 0.0000e+00 -1.0000e+00
        6  2    1    2  501    0 -2.9313350924e+01 -8.4614747110e+01 +3.8072476540e+01 2.0166662577e+02 1.7663800980e+02 0.0000e+00 0.0000e+00
       24  2    3    3    0    0 -2.4461082451e+00 +2.5735413105e+01 +1.8465403563e+01 8.6317009819e+01 8.0258084466e+01 0.0000e+00 0.0000e+00
       -6  2    1    2    0  502 +7.1669996632e+01 +2.1612980563e+01 +4.0177642256e+02 4.4371422771e+02 1.7278400621e+02 0.0000e+00 0.0000e+00
      -24  2    5    5    0    0 +7.0752766988e+01 +7.5981491474e+01 +3.1644422000e+02 3.4242034298e+02 7.9596519001e+01 0.0000e+00 0.0000e+00
        5  1    3    3  501    0 -2.6867242679e+01 -1.1035016022e+02 +1.9607072976e+01 1.1534961595e+02 4.7000000000e+00 0.0000e+00 -1.0000e+00
      -13  1    4    4    0    0 -2.0182994203e+01 +4.3084261672e+00 -2.6411753564e+01 3.3518599573e+01 0.0000000000e+00 0.0000e+00 1.0000e+00
       14  1    4    4    0    0 +1.7736885958e+01 +2.1426986938e+01 +4.4877157127e+01 5.2798410246e+01 0.0000000000e+00 0.0000e+00 -1.0000e+00
       -5  1    5    5    0  502 +9.1722964404e-01 -5.4368510911e+01 +8.5332202568e+01 1.0129388473e+02 4.7000000000e+00 0.0000e+00 1.0000e+00
       13  1    6    6    0    0 +7.8721291182e+01 +3.4658219510e+01 +2.4299258493e+02 2.5776661963e+02 0.0000000000e+00 0.0000e+00 -1.0000e+00
      -14  1    6    6    0    0 -7.9685241941e+00 +4.1323271964e+01 +7.3451635070e+01 8.4653723356e+01 0.0000000000e+00 0.0000e+00 1.0000e+00
       21  1    1    2  504  503 -2.6821016356e+01 +3.6592286361e+00 -1.1922712841e+02 1.2226146171e+02 0.0000000000e+00 0.0000e+00 1.0000e+00
       21  1    1    2  505  504 -1.5535629351e+01 +5.9342537912e+01 -5.2849782906e+01 8.0969081373e+01 0.0000000000e+00 0.0000e+00 1.0000e+00
<mgrwt>
<rscale>  4 0.18978946E+03</rscale>
<asrwt>0</asrwt>
<pdfrwt beam="1">  1       21 0.85875645E-01 0.19068688E+03</pdfrwt>
<pdfrwt beam="2">  1       21 0.44679955E-01 0.19068688E+03</pdfrwt>
<totfact> 0.56369636E+03</totfact>
</mgrwt>
</event>
<event>
14      3 +1.4674046e+01 1.85769000e+02 7.54677100e-03 1.16263600e-01
       21 -1    0    0  504  503 +0.0000000000e+00 +0.0000000000e+00 +1.1412881893e+03 1.1412881893e+03 0.0000000000e+00 0.0000e+00 -1.0000e+00
       -3 -1    0    0    0  501 -0.0000000000e+00 -0.0000000000e+00 -1.2478186860e+02 1.2478186860e+02 0.0000000000e+00 0.0000e+00 -1.0000e+00
        6  2    1    2  502    0 +2.1465343692e+01 +1.0581225368e+02 +5.8129976353e+02 6.1620111099e+02 1.7360126757e+02 0.0000e+00 0.0000e+00
       24  2    3    3    0    0 -1.0630117270e+00 +4.0802467758e+01 +1.2022732766e+02 1.4999978090e+02 7.9870849406e+01 0.0000e+00 0.0000e+00
       -6  2    1    2    0  503 -3.3650832625e-01 -2.9802740752e+01 +4.8324851158e+02 5.1388278163e+02 1.7221519306e+02 0.0000e+00 0.0000e+00
      -24  2    5    5    0    0 -1.0562739773e+01 -4.7273107265e+01 +1.3943648505e+02 1.6944325268e+02 8.3199545518e+01 0.0000e+00 0.0000e+00
        5  1    3    3  502    0 +2.2528355419e+01 +6.5009785927e+01 +4.6107243586e+02 4.6620133009e+02 4.7000000000e+00 0.0000e+00 -1.0000e+00
      -13  1    4    4    0    0 +9.6713193695e+00 -2.2225598679e+01 +4.6295106095e+01 5.2256564213e+01 0.0000000000e+00 0.0000e+00 1.0000e+00
       14  1    4    4    0    0 -1.0734331097e+01 +6.3028066437e+01 +7.3932221570e+01 9.7743216691e+01 0.0000000000e+00 0.0000e+00 -1.0000e+00
       -5  1    5    5    0  503 +1.0226231447e+01 +1.7470366514e+01 +3.4381202654e+02 3.4443952896e+02 4.7000000000e+00 0.0000e+00 1.0000e+00
       13  1    6    6    0    0 -4.5323386364e+01 -3.3588570645e+01 +1.0197186048e+02 1.1653609638e+02 0.0000000000e+00 0.0000e+00 -1.0000e+00
      -14  1    6    6    0    0 +3.4760646590e+01 -1.3684536620e+01 +3.7464624565e+01 5.2907156300e+01 0.0000000000e+00 0.0000e+00 1.0000e+00
       21  1    1    2  504  501 -1.3704367012e+01 -2.0392616638e+01 +3.0685259779e+01 3.9309714527e+01 0.0000000000e+00 0.0000e+00 -1.0000e+00
       -3  1    1    2    0  502 -7.4244683541e+00 -5.5616896295e+01 -7.8727214163e+01 9.6676450771e+01 0.0000000000e+00 0.0000e+00 -1.0000e+00
<mgrwt>
<rscale>  4 0.18544445E+03</rscale>
<asrwt>0</asrwt>
<pdfrwt beam="1">  1       21 0.17558279E+00 0.18576896E+03</pdfrwt>
<pdfrwt beam="2">  1       -3 0.19197211E-01 0.18576896E+03</pdfrwt>
<totfact> 0.23270543E+02</totfact>
</mgrwt>
</event>
<event>
14      3 +1.4674046e+01 1.90829600e+02 7.54677100e-03 1.15777400e-01
       21 -1    0    0  505  502 +0.0000000000e+00 +0.0000000000e+00 +2.4346230577e+02 2.4346230577e+02 0.0000000000e+00 0.0000e+00 -1.0000e+00
       21 -1    0    0  501  503 -0.0000000000e+00 -0.0000000000e+00 -6.0631333790e+02 6.0631333790e+02 0.0000000000e+00 0.0000e+00 -1.0000e+00
        6  2    1    2  501    0 +1.1049364068e+01 +8.8553693374e+01 +1.0107296027e+01 1.9494461675e+02 1.7302427896e+02 0.0000e+00 0.0000e+00
       24  2    3    3    0    0 +7.3747256721e+01 +5.3137324657e+01 +2.1430866512e+00 1.2234390362e+02 8.1860886791e+01 0.0000e+00 0.0000e+00
       -6  2    1    2    0  504 -3.2569959644e+01 -7.6732048032e+01 -2.4596449836e+02 3.1190520304e+02 1.7273595967e+02 0.0000e+00 0.0000e+00
      -24  2    5    5    0    0 +3.5336142025e+01 -7.7096542528e+01 -1.1265487400e+02 1.6222248043e+02 8.0202822379e+01 0.0000e+00 0.0000e+00
        5  1    3    3  501    0 -6.2697892653e+01 +3.5416368717e+01 +7.9642093760e+00 7.2600713132e+01 4.7000000000e+00 0.0000e+00 -1.0000e+00
      -13  1    4    4    0    0 +9.2261392649e-01 -1.8598551617e+01 +7.2761355673e+00 1.9992485776e+01 0.0000000000e+00 0.0000e+00 1.0000e+00
       14  1    4    4    0    0 +7.2824642794e+01 +7.1735876274e+01 -5.1330489161e+00 1.0235141784e+02 0.0000000000e+00 0.0000e+00 -1.0000e+00
       -5  1    5    5    0  504 -6.7906101670e+01 +3.6449449665e-01 -1.3330962436e+02 1.4968272261e+02 4.7000000000e+00 0.0000e+00 1.0000e+00
       13  1    6    6    0    0 +1.3406938341e+01 -8.2282942753e+01 -1.1207364651e+02 1.3968081796e+02 0.0000000000e+00 0.0000e+00 -1.0000e+00
      -14  1    6    6    0    0 +2.1929203685e+01 +5.1864002247e+00 -5.8122749060e-01 2.2541662470e+01 0.0000000000e+00 0.0000e+00 1.0000e+00
       21  1    1    2  504  502 +7.2180442565e+01 -4.9357739722e-01 -2.2266830187e+02 2.3407569836e+02 0.0000000000e+00 0.0000e+00 -1.0000e+00
       21  1    1    2  505  503 -5.0659846989e+01 -1.1328067946e+01 +9.5674472074e+01 1.0885012553e+02 0.0000000000e+00 0.0000e+00 1.0000e+00
<mgrwt>
<rscale>  4 0.19076421E+03</rscale>
<asrwt>0</asrwt>
<pdfrwt beam="1">  1       21 0.37455739E-01 0.19082959E+03</pdfrwt>
<pdfrwt beam="2">  1       21 0.93278975E-01 0.19082959E+03</pdfrwt>
<totfact> 0.66554048E+03</totfact>
</mgrwt>
</event>
<event>
13      3 +1.4674046e+01 8.51997500e+02 7.54677100e-03 9.77372400e-02
       21 -1    0    0  505  502 +0.0000000000e+00 +0.0000000000e+00 +1.7128418326e+03 1.7128418326e+03 0.0000000000e+00 0.0000e+00 -1.0000e+00
       21 -1    0    0  504  503 -0.0000000000e+00 -0.0000000000e+00 -1.0182571018e+03 1.0182571018e+03 0.0000000000e+00 0.0000e+00 1.0000e+00
       -6  2    1    2    0  503 -1.2178141230e+02 -2.5814915053e+02 -2.1113734340e+02 3.9484720578e+02 1.7278206454e+02 0.0000e+00 0.0000e+00
      -24  2    3    3    0    0 -1.1673590942e+02 -9.8749901452e+01 -9.5254652590e+01 1.9765576139e+02 8.1335942775e+01 0.0000e+00 0.0000e+00
       24  2    1    2    0    0 -3.3693458861e+02 +9.7641864267e+01 -5.0283029175e+01 3.6449855648e+02 8.5275811312e+01 0.0000e+00 0.0000e+00
        5  1    1    2  501    0 +4.5860456744e+02 +1.4211275390e+02 -2.2355178952e+02 5.2963353056e+02 4.7000000000e+00 0.0000e+00 -1.0000e+00
      -13  1    5    5    0    0 -1.6886441540e+02 +3.3335226282e+01 -6.4902416203e+01 1.8395312372e+02 0.0000000000e+00 0.0000e+00 1.0000e+00
       14  1    5    5    0    0 -1.6807017321e+02 +6.4306637985e+01 +1.4619387028e+01 1.8054543276e+02 0.0000000000e+00 0.0000e+00 -1.0000e+00
       -5  1    3    3    0  503 -5.0455028760e+00 -1.5939924908e+02 -1.1588269081e+02 1.9719144438e+02 4.7000000000e+00 0.0000e+00 1.0000e+00
       13  1    4    4    0    0 -1.7721363556e+01 +1.1704012537e+01 +2.3874238819e-01 2.1238823736e+01 0.0000000000e+00 0.0000e+00 -1.0000e+00
      -14  1    4    4    0    0 -9.9014545863e+01 -1.1045391399e+02 -9.5493394978e+01 1.7641693766e+02 0.0000000000e+00 0.0000e+00 1.0000e+00
       21  1    1    2  504  502 -5.4010157960e+01 -4.1145914252e+01 +1.2975378271e+03 1.2993130862e+03 0.0000000000e+00 0.0000e+00 -1.0000e+00
       21  1    1    2  505  501 +5.4121591426e+01 +5.9540446621e+01 -1.1798093410e+02 1.4280655536e+02 0.0000000000e+00 0.0000e+00 -1.0000e+00
<mgrwt>
<rscale>  4 0.66791912E+03</rscale>
<asrwt>0</asrwt>
<pdfrwt beam="1">  1       21 0.26351413E+00 0.85199752E+03</pdfrwt>
<pdfrwt beam="2">  1       21 0.15665494E+00 0.85199752E+03</pdfrwt>
<totfact> 0.88652428E+00</totfact>
</mgrwt>
</event>
<event>
13      2 +1.4674046e+01 2.66422100e+02 7.54677100e-03 1.10371000e-01
       21 -1    0    0  504  502 +0.0000000000e+00 +0.0000000000e+00 +5.1618855999e+02 5.1618855999e+02 0.0000000000e+00 0.0000e+00 1.0000e+00
       21 -1    0    0  502  503 -0.0000000000e+00 -0.0000000000e+00 -7.1870485995e+02 7.1870485995e+02 0.0000000000e+00 0.0000e+00 1.0000e+00
       -6  2    1    2    0  503 +8.9647485500e+01 -1.9402081911e+02 -3.5736476330e+02 4.5193414657e+02 1.7565349094e+02 0.0000e+00 0.0000e+00
      -24  2    3    3    0    0 -4.0913308451e+00 -1.4131983492e+02 -1.7757116179e+02 2.4238179375e+02 8.5025770887e+01 0.0000e+00 0.0000e+00
        6  2    1    2  501    0 -6.4472951012e+01 +1.7459570052e+02 -2.6227025393e+02 3.6463031582e+02 1.7184051053e+02 0.0000e+00 0.0000e+00
       24  2    5    5    0    0 -2.6463744593e+01 +1.0207992242e+02 -2.5360512353e+02 2.8216570322e+02 6.4662856797e+01 0.0000e+00 0.0000e+00
        5  1    5    5  501    0 -3.8009206418e+01 +7.2515778105e+01 -8.6651303996e+00 8.2464612602e+01 4.7000000000e+00 0.0000e+00 -1.0000e+00
      -13  1    6    6    0    0 -1.2253836298e+01 +8.9013769646e+01 -1.3609887964e+02 1.6308437304e+02 0.0000000000e+00 0.0000e+00 1.0000e+00
       14  1    6    6    0    0 -1.4209908296e+01 +1.3066152773e+01 -1.1750624390e+02 1.1908133018e+02 0.0000000000e+00 0.0000e+00 -1.0000e+00
       -5  1    3    3    0  503 +9.3738816345e+01 -5.2700984195e+01 -1.7979360151e+02 2.0955235281e+02 4.7000000000e+00 0.0000e+00 1.0000e+00
       13  1    4    4    0    0 +1.4194773509e+01 -4.4043879032e+01 -9.3627208225e+00 4.7212449802e+01 0.0000000000e+00 0.0000e+00 -1.0000e+00
      -14  1    4    4    0    0 -1.8286104354e+01 -9.7275955884e+01 -1.6820844097e+02 1.9516934395e+02 0.0000000000e+00 0.0000e+00 1.0000e+00
       21  1    1    2  504  501 -2.5174534489e+01 +1.9425118586e+01 +4.1711871728e+02 4.1832895755e+02 0.0000000000e+00 0.0000e+00 1.0000e+00
<mgrwt>
<rscale>  3 0.26579531E+03</rscale>
<asrwt>0</asrwt>
<pdfrwt beam="1">  1       21 0.79413625E-01 0.26642211E+03</pdfrwt>
<pdfrwt beam="2">  1       21 0.11056998E+00 0.26642211E+03</pdfrwt>
<totfact> 0.84463723E+02</totfact>
</mgrwt>
</event>
<event>
12      1 +1.4674046e+01 1.78699200e+02 7.54677100e-03 1.16908700e-01
       21 -1    0    0  501  502 +0.0000000000e+00 +0.0000000000e+00 +5.1102714720e+02 5.1102714720e+02 0.0000000000e+00 0.0000e+00 -1.0000e+00
       21 -1    0    0  502  503 -0.0000000000e+00 -0.0000000000e+00 -9.1310119254e+01 9.1310119254e+01 0.0000000000e+00 0.0000e+00 -1.0000e+00
       -6  2    1    2    0  503 -1.2630995554e+01 -4.1926660907e+01 +4.0545647031e+01 1.8316623813e+02 1.7317197913e+02 0.0000e+00 0.0000e+00
      -24  2    3    3    0    0 +4.6366360715e+01 +1.4381333534e+01 +3.5899853181e+01 1.0134355371e+02 8.1394436301e+01 0.0000e+00 0.0000e+00
        6  2    1    2  501    0 +1.2630995554e+01 +4.1926660907e+01 +3.7917138091e+02 4.1917102832e+02 1.7325134325e+02 0.0000e+00 0.0000e+00
       24  2    5    5    0    0 -2.7089391014e+01 -2.1624049295e+01 +2.9071565527e+02 3.0314125940e+02 7.8597686478e+01 0.0000e+00 0.0000e+00
        5  1    5    5  501    0 +3.9720386568e+01 +6.3550710202e+01 +8.8455725644e+01 1.1602976892e+02 4.7000000000e+00 0.0000e+00 -1.0000e+00
      -13  1    6    6    0    0 -4.0366734795e+01 +1.5380282427e+01 +1.0955543437e+02 1.1776425419e+02 0.0000000000e+00 0.0000e+00 1.0000e+00
       14  1    6    6    0    0 +1.3277343782e+01 -3.7004331722e+01 +1.8116022090e+02 1.8537700521e+02 0.0000000000e+00 0.0000e+00 -1.0000e+00
       -5  1    3    3    0  503 -5.8997356269e+01 -5.6307994441e+01 +4.6457938498e+00 8.1822684417e+01 4.7000000000e+00 0.0000e+00 1.0000e+00
       13  1    4    4    0    0 -2.1798985921e+01 +1.3848136175e+00 -2.5811132568e+00 2.1994900354e+01 0.0000000000e+00 0.0000e+00 -1.0000e+00
      -14  1    4    4    0    0 +6.8165346636e+01 +1.2996519917e+01 +3.8480966438e+01 7.9348653359e+01 0.0000000000e+00 0.0000e+00 1.0000e+00
<mgrwt>
<rscale>  2 0.17867999E+03</rscale>
<asrwt>0</asrwt>
<pdfrwt beam="1">  1       21 0.78619560E-01 0.17869923E+03</pdfrwt>
<pdfrwt beam="2">  1       21 0.14047711E-01 0.17869923E+03</pdfrwt>
<totfact> 0.63613510E+04</totfact>
</mgrwt>
</event>
<event>
14      3 +1.4674046e+01 3.77706100e+02 7.54677100e-03 1.06643200e-01
       21 -1    0    0  504  502 +0.0000000000e+00 +0.0000000000e+00 +2.1883815895e+03 2.1883815895e+03 0.0000000000e+00 0.0000e+00 1.0000e+00
       21 -1    0    0  501  503 -0.0000000000e+00 -0.0000000000e+00 -3.8354353070e+02 3.8354353070e+02 0.0000000000e+00 0.0000e+00 1.0000e+00
        6  2    1    2  501    0 +1.5554815727e+02 +1.4963118679e+02 -2.2209100564e+02 3.5495241664e+02 1.7344186923e+02 0.0000e+00 0.0000e+00
       24  2    3    3    0    0 +1.0386502025e+02 +1.6424158742e+02 -1.2713569687e+02 2.4575895932e+02 8.0440905002e+01 0.0000e+00 0.0000e+00
       -6  2    1    2    0  505 -3.0956529195e+02 +2.0185560850e+02 +1.0732485460e+03 1.1482970813e+03 1.7363003364e+02 0.0000e+00 0.0000e+00
      -24  2    5    5    0    0 -1.5479471130e+02 +1.8209472565e+02 +6.6967758848e+02 7.1558928966e+02 8.0498864601e+01 0.0000e+00 0.0000e+00
        5  1    3    3  501    0 +5.1683137029e+01 -1.4610400626e+01 -9.4955308763e+01 1.0919345732e+02 4.7000000000e+00 0.0000e+00 -1.0000e+00
      -13  1    4    4    0    0 +7.7069858124e+01 +1.1815139711e+02 -4.5434463786e+01 1.4820191015e+02 0.0000000000e+00 0.0000e+00 1.0000e+00
       14  1    4    4    0    0 +2.6795162122e+01 +4.6090190305e+01 -8.1701233086e+01 9.7557049172e+01 0.0000000000e+00 0.0000e+00 -1.0000e+00
       -5  1    5    5    0  505 -1.5477058065e+02 +1.9760882852e+01 +4.0357095755e+02 4.3270779159e+02 4.7000000000e+00 0.0000e+00 1.0000e+00
       13  1    6    6    0    0 -4.4628961024e+01 +1.7247986946e+01 +7.7277457040e+01 9.0890277711e+01 0.0000000000e+00 0.0000e+00 -1.0000e+00
      -14  1    6    6    0    0 -1.1016575028e+02 +1.6484673871e+02 +5.9240013144e+02 6.2469901195e+02 0.0000000000e+00 0.0000e+00 1.0000e+00
       21  1    1    2  504  503 -4.0669938603e+00 -6.3946604181e+01 +4.3351947860e+00 6.4222290049e+01 0.0000000000e+00 0.0000e+00 -1.0000e+00
       21  1    1    2  505  502 +1.5808412854e+02 -2.8754019112e+02 +9.4934532362e+02 1.0044533323e+03 0.0000000000e+00 0.0000e+00 1.0000e+00
<mgrwt>
<rscale>  4 0.34085521E+03</rscale>
<asrwt>0</asrwt>
<pdfrwt beam="1">  1       21 0.33667408E+00 0.37770608E+03</pdfrwt>
<pdfrwt beam="2">  1       21 0.59006698E-01 0.37770608E+03</pdfrwt>
<totfact> 0.44724689E+01</totfact>
</mgrwt>
</event>
<event>
14      3 +1.4674046e+01 1.79664100e+02 7.54677100e-03 1.16828600e-01
       -2 -1    0    0    0  501 -0.0000000000e+00 +0.0000000000e+00 +8.5205428978e+02 8.5205428978e+02 0.0000000000e+00 0.0000e+00 -1.0000e+00
       21 -1    0    0  502  503 +0.0000000000e+00 -0.0000000000e+00 -1.8877175309e+02 1.8877175309e+02 0.0000000000e+00 0.0000e+00 -1.0000e+00
        6  2    1    2  502    0 -1.2000254978e+01 +3.1236041611e+01 +3.6264591245e+01 1.8058807286e+02 1.7371596089e+02 0.0000e+00 0.0000e+00
       24  2    3    3    0    0 -1.9672051926e+01 +5.9618128941e+01 +7.9772398392e+01 1.2786788098e+02 7.7751196228e+01 0.0000e+00 0.0000e+00
       -6  2    1    2    0  504 -4.8410065862e+01 -1.0949638790e+02 +1.7341055974e+02 2.7266892529e+02 1.7304371457e+02 0.0000e+00 0.0000e+00
      -24  2    5    5    0    0 -1.1575437202e+01 -1.3726728336e+02 +1.5689917123e+02 2.2344770574e+02 7.9594154576e+01 0.0000e+00 0.0000e+00
        5  1    3    3  502    0 +7.6717969487e+00 -2.8382087331e+01 -4.3507807147e+01 5.2720191886e+01 4.7000000000e+00 0.0000e+00 -1.0000e+00
      -13  1    4    4    0    0 -2.1739439203e+01 -2.8936141919e+00 +5.7390100133e+01 6.1437771877e+01 0.0000000000e+00 0.0000e+00 1.0000e+00
       14  1    4    4    0    0 +2.0673872769e+00 +6.2511743133e+01 +2.2382298260e+01 6.6430109100e+01 0.0000000000e+00 0.0000e+00 -1.0000e+00
       -5  1    5    5    0  504 -3.6834628660e+01 +2.7770895463e+01 +1.6511388515e+01 4.9221219550e+01 4.7000000000e+00 0.0000e+00 1.0000e+00
       13  1    6    6    0    0 -4.0829818515e+01 -4.4717897331e+01 +4.5820234167e+01 7.5935882696e+01 0.0000000000e+00 0.0000e+00 -1.0000e+00
      -14  1    6    6    0    0 +2.9254381313e+01 -9.2549386029e+01 +1.1107893706e+02 1.4751182305e+02 0.0000000000e+00 0.0000e+00 1.0000e+00
       21  1    1    2  504  501 -2.0849092665e+01 -3.9238132266e+01 -4.8357035255e+01 6.5671291653e+01 0.0000000000e+00 0.0000e+00 -1.0000e+00
       -2  1    1    2    0  503 +8.1259413505e+01 +1.1749847855e+02 +5.0196442096e+02 5.2189775306e+02 0.0000000000e+00 0.0000e+00 -1.0000e+00
<mgrwt>
<rscale>  4 0.17950142E+03</rscale>
<asrwt>0</asrwt>
<pdfrwt beam="2">  1       21 0.29041809E-01 0.17966412E+03</pdfrwt>
<pdfrwt beam="1">  1       -2 0.13108527E+00 0.17966412E+03</pdfrwt>
<totfact> 0.42035972E+02</totfact>
</mgrwt>
</event>
<event>
14      3 +1.4674046e+01 1.77593100e+02 7.54677100e-03 1.17015700e-01
       21 -1    0    0  504  502 +0.0000000000e+00 +0.0000000000e+00 +6.5618889845e+01 6.5618889845e+01 0.0000000000e+00 0.0000e+00 -1.0000e+00
       21 -1    0    0  505  503 -0.0000000000e+00 -0.0000000000e+00 -2.2816720707e+03 2.2816720707e+03 0.0000000000e+00 0.0000e+00 -1.0000e+00
        6  2    1    2  501    0 -3.4459383797e+01 -1.0969155257e+02 -2.8657329836e+02 3.5388262209e+02 1.7288426490e+02 0.0000e+00 0.0000e+00
       24  2    3    3    0    0 -1.7773687970e+00 -5.1106595921e+01 -2.6834001412e+02 2.8420584042e+02 7.8431838980e+01 0.0000e+00 0.0000e+00
       -6  2    1    2    0  502 -1.9738080609e+01 -3.0703347917e+01 -3.0007336988e+02 3.4822387115e+02 1.7286859093e+02 0.0000e+00 0.0000e+00
      -24  2    5    5    0    0 +5.3294166488e+00 -1.0998254731e+01 -5.0986920129e+01 9.7060936854e+01 8.1681057472e+01 0.0000e+00 0.0000e+00
        5  1    3    3  501    0 -3.2682015000e+01 -5.8584956649e+01 -1.8233284242e+01 6.9676781673e+01 4.7000000000e+00 0.0000e+00 -1.0000e+00
      -13  1    4    4    0    0 -8.9699286928e+00 +1.3166387393e+01 -1.2308979679e+01 2.0132668936e+01 0.0000000000e+00 0.0000e+00 1.0000e+00
       14  1    4    4    0    0 +7.1925598959e+00 -6.4272983315e+01 -2.5603103444e+02 2.6407317148e+02 0.0000000000e+00 0.0000e+00 -1.0000e+00
       -5  1    5    5    0  502 -2.5067497258e+01 -1.9705093186e+01 -2.4908644975e+02 2.5116293430e+02 4.7000000000e+00 0.0000e+00 1.0000e+00
       13  1    6    6    0    0 -2.1420369888e+01 +2.5813038648e+01 -8.0461624637e+00 3.4494723376e+01 0.0000000000e+00 0.0000e+00 -1.0000e+00
      -14  1    6    6    0    0 +2.6749786537e+01 -3.6811293380e+01 -4.2940757665e+01 6.2566213477e+01 0.0000000000e+00 0.0000e+00 1.0000e+00
       21  1    1    2  504  503 +9.4616476559e+01 +1.3874945510e+02 -9.6167339817e+02 9.7622713222e+02 0.0000000000e+00 0.0000e+00 -1.0000e+00
       21  1    1    2  505  501 -4.0419012153e+01 +1.6454453872e+00 -6.6773311446e+02 6.6895733509e+02 0.0000000000e+00 0.0000e+00 -1.0000e+00
<mgrwt>
<rscale>  4 0.17758928E+03</rscale>
<asrwt>0</asrwt>
<pdfrwt beam="1">  1       21 0.10095213E-01 0.17759309E+03</pdfrwt>
<pdfrwt beam="2">  1       21 0.35102649E+00 0.17759309E+03</pdfrwt>
<totfact> 0.14073272E+03</totfact>
</mgrwt>
</event>
<event>
14      3 +1.4674046e+01 3.03105300e+02 7.54677100e-03 1.08385000e-01
       21 -1    0    0  505  502 +0.0000000000e+00 +0.0000000000e+00 +7.9657117626e+02 7.9657117626e+02 0.0000000000e+00 0.0000e+00 -1.0000e+00
       21 -1    0    0  501  503 -0.0000000000e+00 -0.0000000000e+00 -2.5423741087e+02 2.5423741087e+02 0.0000000000e+00 0.0000e+00 -1.0000e+00
        6  2    1    2  501    0 +1.5310409088e+02 +7.7891129367e+01 +1.1474244191e+02 2.6961500698e+02 1.7325857362e+02 0.0000e+00 0.0000e+00
       24  2    3    3    0    0 +4.6039468482e+01 +4.2511940747e+01 +1.1779194645e+02 1.5671722208e+02 8.2209776098e+01 0.0000e+00 0.0000e+00
       -6  2    1    2    0  502 -3.4544027014e+02 +3.7019883886e+01 +3.8963170137e+02 5.4935422593e+02 1.7110742472e+02 0.0000e+00 0.0000e+00
      -24  2    5    5    0    0 -2.2579404087e+02 +6.2087097874e+01 +3.3095128602e+02 4.1367421067e+02 8.2218259752e+01 0.0000e+00 0.0000e+00
        5  1    3    3  501    0 +1.0706462240e+02 +3.5379188619e+01 -3.0495045318e+00 1.1289778489e+02 4.7000000000e+00 0.0000e+00 -1.0000e+00
      -13  1    4    4    0    0 +6.3203014765e+01 +3.5826925575e+01 +1.1767744504e+02 1.3829739962e+02 0.0000000000e+00 0.0000e+00 1.0000e+00
       14  1    4    4    0    0 -1.7163546284e+01 +6.6850151722e+00 +1.1450140536e-01 1.8419822460e+01 0.0000000000e+00 0.0000e+00 -1.0000e+00
       -5  1    5    5    0  502 -1.1964622927e+02 -2.5067213988e+01 +5.8680415348e+01 1.3568001526e+02 4.7000000000e+00 0.0000e+00 1.0000e+00
       13  1    6    6    0    0 -2.0092121867e+02 +4.0071979763e+01 +2.3310418164e+02 3.1034280912e+02 0.0000000000e+00 0.0000e+00 -1.0000e+00
      -14  1    6    6    0    0 -2.4872822198e+01 +2.2015118111e+01 +9.7847104384e+01 1.0333140155e+02 0.0000000000e+00 0.0000e+00 1.0000e+00
       21  1    1    2  504  503 +3.2864102924e+01 -8.6560072344e+00 -7.6999252891e+00 3.4846299254e+01 0.0000000000e+00 0.0000e+00 1.0000e+00
       21  1    1    2  505  504 +1.5947207634e+02 -1.0625500602e+02 +4.5659547398e+01 1.9699305497e+02 0.0000000000e+00 0.0000e+00 -1.0000e+00
<mgrwt>
<rscale>  4 0.30279872E+03</rscale>
<asrwt>0</asrwt>
<pdfrwt beam="1">  1       21 0.12254941E+00 0.30310530E+03</pdfrwt>
<pdfrwt beam="2">  1       21 0.39113448E-01 0.30310530E+03</pdfrwt>
<totfact> 0.29218515E+03</totfact>
</mgrwt>
</event>
<event>
13      2 +1.4674046e+01 3.47753300e+02 7.54677100e-03 1.06354100e-01
       -2 -1    0    0    0  501 -0.0000000000e+00 +0.0000000000e+00 +3.7982707176e+01 3.7982707176e+01 0.0000000000e+00 0.0000e+00 -1.0000e+00
        2 -1    0    0  503    0 +0.0000000000e+00 -0.0000000000e+00 -3.8948840345e+03 3.8948840345e+03 0.0000000000e+00 0.0000e+00 1.0000e+00
        6  2    1    2  502    0 -2.8538376324e+02 +9.0592662137e+01 -1.2301220712e+03 1.2780471648e+03 1.7479508776e+02 0.0000e+00 0.0000e+00
       24  2    3    3    0    0 -2.4938816865e+02 +7.2649362891e+01 -7.7741770556e+02 8.2353536356e+02 7.9748464088e+01 0.0000e+00 0.0000e+00
       -6  2    1    2    0  501 +2.8323179674e+02 -1.1327998715e+02 -2.2293476102e+03 2.2567350898e+03 1.7265541436e+02 0.0000e+00 0.0000e+00
      -24  2    5    5    0    0 +1.9841471299e+02 -1.1049930420e+02 -1.9480127322e+03 1.9628421272e+03 8.0106908297e+01 0.0000e+00 0.0000e+00
        5  1    3    3  502    0 -3.5995594586e+01 +1.7943299246e+01 -4.5270436560e+02 4.5451180123e+02 4.7000000000e+00 0.0000e+00 -1.0000e+00
      -13  1    4    4    0    0 -7.3325102699e+01 +3.5876268494e+01 -3.5781239978e+02 3.6700598192e+02 0.0000000000e+00 0.0000e+00 1.0000e+00
       14  1    4    4    0    0 -1.7606306596e+02 +3.6773094397e+01 -4.1960530578e+02 4.5652938164e+02 0.0000000000e+00 0.0000e+00 -1.0000e+00
       -5  1    5    5    0  501 +8.4817083757e+01 -2.7806829551e+00 -2.8133487801e+02 2.9389296262e+02 4.7000000000e+00 0.0000e+00 1.0000e+00
       13  1    6    6    0    0 +4.9742569494e+00 -1.4102897956e+01 -4.1390291444e+01 4.4008989864e+01 0.0000000000e+00 0.0000e+00 -1.0000e+00
      -14  1    6    6    0    0 +1.9344045604e+02 -9.6396406243e+01 -1.9066224408e+03 1.9188331373e+03 0.0000000000e+00 0.0000e+00 1.0000e+00
       21  1    1    2  503  502 +2.1519664979e+00 +2.2687325017e+01 -3.9743164595e+02 3.9808448711e+02 0.0000000000e+00 0.0000e+00 -1.0000e+00
<mgrwt>
<rscale>  3 0.34775331E+03</rscale>
<asrwt>0</asrwt>
<pdfrwt beam="2">  1        2 0.59921315E+00 0.34775331E+03</pdfrwt>
<pdfrwt beam="1">  1       -2 0.58434912E-02 0.34775331E+03</pdfrwt>
<totfact> 0.80434707E+01</totfact>
</mgrwt>
</event>
<event>
13      2 +1.4674046e+01 1.74706600e+02 7.54677100e-03 1.17354100e-01
        2 -1    0    0  501    0 -0.0000000000e+00 +0.0000000000e+00 +4.4454068329e+02 4.4454068329e+02 0.0000000000e+00 0.0000e+00 -1.0000e+00
       21 -1    0    0  502  503 +0.0000000000e+00 -0.0000000000e+00 -1.9188451651e+02 1.9188451651e+02 0.0000000000e+00 0.0000e+00 -1.0000e+00
        6  2    1    2  501    0 -3.5057865038e+01 -1.6843752611e+01 -9.6760572932e+01 1.9878217882e+02 1.6923055350e+02 0.0000e+00 0.0000e+00
       24  2    3    3    0    0 -3.9285340745e+01 -5.4376444383e+01 -1.1561237878e+02 1.5630800919e+02 8.1029845788e+01 0.0000e+00 0.0000e+00
       -6  2    1    2    0  503 +1.3085680590e+01 +1.5943051617e+01 +1.2724982229e+02 2.1439041215e+02 1.7130474488e+02 0.0000e+00 0.0000e+00
      -24  2    5    5    0    0 +3.0658809409e+01 -3.7669789766e+01 +3.0556049724e+01 1.0234164031e+02 8.4741745978e+01 0.0000e+00 0.0000e+00
        5  1    3    3  501    0 +4.2274757069e+00 +3.7532691772e+01 +1.8851805844e+01 4.2474169634e+01 4.7000000000e+00 0.0000e+00 -1.0000e+00
      -13  1    4    4    0    0 -4.0164715367e+01 -6.6525108325e+01 -5.6819284584e+01 9.6266429760e+01 0.0000000000e+00 0.0000e+00 1.0000e+00
       14  1    4    4    0    0 +8.7937462188e-01 +1.2148663942e+01 -5.8793094192e+01 6.0041579426e+01 0.0000000000e+00 0.0000e+00 -1.0000e+00
       -5  1    5    5    0  503 -1.7573128819e+01 +5.3612841383e+01 +9.6693772569e+01 1.1204877184e+02 4.7000000000e+00 0.0000e+00 1.0000e+00
       13  1    6    6    0    0 +1.6788825423e+00 -4.0306824404e+01 -1.9217926789e+01 4.4685427716e+01 0.0000000000e+00 0.0000e+00 -1.0000e+00
      -14  1    6    6    0    0 +2.8979926867e+01 +2.6370346379e+00 +4.9773976513e+01 5.7656212595e+01 0.0000000000e+00 0.0000e+00 1.0000e+00
        2  1    1    2  502    0 +2.1972184448e+01 +9.0070099374e-01 +2.2216691742e+02 2.2325260883e+02 0.0000000000e+00 0.0000e+00 -1.0000e+00
<mgrwt>
<rscale>  3 0.17419608E+03</rscale>
<asrwt>0</asrwt>
<pdfrwt beam="2">  1       21 0.29520695E-01 0.17470664E+03</pdfrwt>
<pdfrwt beam="1">  1        2 0.68390874E-01 0.17470664E+03</pdfrwt>
<totfact> 0.97990999E+03</totfact>
</mgrwt>
</event>
<event>
13      3 +1.4674046e+01 2.35215400e+02 7.54677100e-03 1.13034500e-01
        2 -1    0    0  504    0 -0.0000000000e+00 +0.0000000000e+00 +2.2342641264e+03 2.2342641264e+03 0.0000000000e+00 0.0000e+00 1.0000e+00
       21 -1    0    0  501  503 +0.0000000000e+00 -0.0000000000e+00 -1.1344765258e+03 1.1344765258e+03 0.0000000000e+00 0.0000e+00 1.0000e+00
      -24  2    1    2    0    0 -5.0201608721e+01 -1.3335512433e+02 +9.3010446973e+01 1.8836518732e+02 8.0788055091e+01 0.0000e+00 0.0000e+00
        6  2    1    2  501    0 -6.5568398130e+01 +7.0276364926e+01 -8.4303646591e+02 8.6538615649e+02 1.7013152176e+02 0.0000e+00 0.0000e+00
       24  2    4    4    0    0 -9.8748183247e-01 +4.2689489866e+01 -6.9961873729e+02 7.0562863614e+02 8.1375837418e+01 0.0000e+00 0.0000e+00
        5  1    4    4  501    0 -6.4580916297e+01 +2.7586875060e+01 -1.4341772862e+02 1.5975752035e+02 4.7000000000e+00 0.0000e+00 -1.0000e+00
      -13  1    5    5    0    0 -8.2495332002e+00 +5.6085542625e+01 -2.7730650511e+02 2.8304158823e+02 0.0000000000e+00 0.0000e+00 1.0000e+00
       14  1    5    5    0    0 +7.2620513677e+00 -1.3396052760e+01 -4.2231223217e+02 4.2258704791e+02 0.0000000000e+00 0.0000e+00 -1.0000e+00
       -5  1    1    2    0  502 +1.2389078436e+00 -6.5045777971e+01 -8.5502251638e+01 1.0754168103e+02 4.7000000000e+00 0.0000e+00 1.0000e+00
       13  1    3    3    0    0 -3.7360465270e+01 -2.6487396129e+01 +6.0592507119e+01 7.5952869846e+01 0.0000000000e+00 0.0000e+00 -1.0000e+00
      -14  1    3    3    0    0 -1.2841143451e+01 -1.0686772820e+02 +3.2417939854e+01 1.1241231747e+02 0.0000000000e+00 0.0000e+00 1.0000e+00
       21  1    1    2  504  503 +9.0695639063e+01 +1.1260440258e+02 -9.7527755393e+01 1.7440502716e+02 0.0000000000e+00 0.0000e+00 -1.0000e+00
        2  1    1    2  502    0 +2.3835459945e+01 +1.5520134792e+01 +2.0328436266e+03 2.0330426002e+03 0.0000000000e+00 0.0000e+00 1.0000e+00
<mgrwt>
<rscale>  4 0.22481211E+03</rscale>
<asrwt>0</asrwt>
<pdfrwt beam="2">  1       21 0.17453485E+00 0.23521543E+03</pdfrwt>
<pdfrwt beam="1">  1        2 0.34373294E+00 0.23521543E+03</pdfrwt>
<totfact> 0.13669636E+01</totfact>
</mgrwt>
</event>
<event>
13      2 +1.4674046e+01 1.99517600e+02 7.54677100e-03 1.15031400e-01
       21 -1    0    0  501  503 +0.0000000000e+00 +0.0000000000e+00 +5.5962579413e+02 5.5962579413e+02 0.0000000000e+00 0.0000e+00 1.0000e+00
       -3 -1    0    0    0  501 -0.0000000000e+00 -0.0000000000e+00 -3.6914773995e+02 3.6914773995e+02 0.0000000000e+00 0.0000e+00 -1.0000e+00
        6  2    1    2  502    0 +1.4605815923e+02 +7.6542571998e+01 +3.2026620507e+02 4.0034659511e+02 1.7468601232e+02 0.0000e+00 0.0000e+00
       24  2    3    3    0    0 +1.6127114486e+02 +3.4663103157e+01 +2.9778023891e+02 3.5021642938e+02 8.2271281937e+01 0.0000e+00 0.0000e+00
       -6  2    1    2    0  503 -3.1639966679e+01 +5.0915197703e+01 +1.2436254748e+02 2.2194760308e+02 1.7378506969e+02 0.0000e+00 0.0000e+00
      -24  2    5    5    0    0 -1.7258747888e-01 -3.4344087963e+01 +2.9770549436e+01 9.0688021178e+01 7.8476018038e+01 0.0000e+00 0.0000e+00
        5  1    3    3  502    0 -1.5212985631e+01 +4.1879468841e+01 +2.2485966153e+01 5.0130165730e+01 4.7000000000e+00 0.0000e+00 -1.0000e+00
      -13  1    4    4    0    0 +7.0000822141e+01 +5.3458819050e+01 +1.7663544495e+02 1.9737791378e+02 0.0000000000e+00 0.0000e+00 1.0000e+00
       14  1    4    4    0    0 +9.1270322721e+01 -1.8795715893e+01 +1.2114479396e+02 1.5283851560e+02 0.0000000000e+00 0.0000e+00 -1.0000e+00
       -5  1    5    5    0  503 -3.1467379200e+01 +8.5259285666e+01 +9.4591998048e+01 1.3125958190e+02 4.7000000000e+00 0.0000e+00 1.0000e+00
       13  1    6    6    0    0 +2.3196966022e+01 -2.6791038054e+01 -1.5893040253e+01 3.8838739438e+01 0.0000000000e+00 0.0000e+00 -1.0000e+00
      -14  1    6    6    0    0 -2.3369553500e+01 -7.5530499084e+00 +4.5663589689e+01 5.1849281740e+01 0.0000000000e+00 0.0000e+00 1.0000e+00
       -3  1    1    2    0  502 -1.1441819255e+02 -1.2745776970e+02 -2.5415069837e+02 3.0647933589e+02 0.0000000000e+00 0.0000e+00 -1.0000e+00
<mgrwt>
<rscale>  3 0.19932021E+03</rscale>
<asrwt>0</asrwt>
<pdfrwt beam="1">  1       21 0.86096276E-01 0.19951759E+03</pdfrwt>
<pdfrwt beam="2">  1       -3 0.56791960E-01 0.19951759E+03</pdfrwt>
<totfact> 0.17674835E+02</totfact>
</mgrwt>
</event>
<event>
12      2 +1.4674046e+01 4.84827000e+02 7.54677100e-03 1.02259900e-01
       21 -1    0    0  503  502 +0.0000000000e+00 +0.0000000000e+00 +1.0489946586e+03 1.0489946586e+03 0.0000000000e+00 0.0000e+00 1.0000e+00
       21 -1    0    0  504  503 -0.0000000000e+00 -0.0000000000e+00 -1.1288179798e+03 1.1288179798e+03 0.0000000000e+00 0.0000e+00 1.0000e+00
       24  2    1    2    0    0 -2.8872666647e+01 +3.6116366322e+02 +3.3506240188e+02 4.9996029480e+02 8.0129025414e+01 0.0000e+00 0.0000e+00
       -6  2    1    2    0  502 -8.5351371883e+01 -3.8789834985e+02 +3.7788011166e+02 5.7479268219e+02 1.7275202519e+02 0.0000e+00 0.0000e+00
      -24  2    4    4    0    0 +7.5480477350e+00 -9.4755545283e+01 +1.1873616461e+02 1.7262271647e+02 8.1637853153e+01 0.0000e+00 0.0000e+00
        5  1    1    2  501    0 +9.7555608828e+01 -5.0062572224e-02 +1.3948239120e+02 1.7027779296e+02 4.7000000000e+00 0.0000e+00 -1.0000e+00
      -13  1    3    3    0    0 -3.1368219713e+01 +7.3418309072e+01 +4.6266202535e+01 9.2275537452e+01 0.0000000000e+00 0.0000e+00 1.0000e+00
       14  1    3    3    0    0 +2.4955530664e+00 +2.8774535415e+02 +2.8879619934e+02 4.0768475735e+02 0.0000000000e+00 0.0000e+00 -1.0000e+00
       -5  1    4    4    0  502 -9.2899419618e+01 -2.9314280457e+02 +2.5914394705e+02 4.0216996572e+02 4.7000000000e+00 0.0000e+00 1.0000e+00
       13  1    5    5    0    0 +3.6870935724e+01 -8.0589566635e+01 +6.5444349900e+01 1.1016853945e+02 0.0000000000e+00 0.0000e+00 -1.0000e+00
      -14  1    5    5    0    0 -2.9322887989e+01 -1.4165978648e+01 +5.3291814714e+01 6.2454177015e+01 0.0000000000e+00 0.0000e+00 1.0000e+00
       21  1    1    2  504  501 +1.6668429702e+01 +2.6784749199e+01 -9.3224822593e+02 9.3278186844e+02 0.0000000000e+00 0.0000e+00 1.0000e+00
<mgrwt>
<rscale>  3 0.46760318E+03</rscale>
<asrwt>0</asrwt>
<pdfrwt beam="1">  1       21 0.16138379E+00 0.48482696E+03</pdfrwt>
<pdfrwt beam="2">  1       21 0.17366430E+00 0.48482696E+03</pdfrwt>
<totfact> 0.37705109E+01</totfact>
</mgrwt>
</event>
<event>
14      3 +1.4674046e+01 4.30088000e+02 7.54677100e-03 1.03383500e-01
       21 -1    0    0  503  502 +0.0000000000e+00 +0.0000000000e+00 +5.2685548764e+02 5.2685548764e+02 0.0000000000e+00 0.0000e+00 -1.0000e+00
       21 -1    0    0  505  503 -0.0000000000e+00 -0.0000000000e+00 -5.3110187102e+02 5.3110187102e+02 0.0000000000e+00 0.0000e+00 -1.0000e+00
        6  2    1    2  501    0 -6.2137005293e+01 -3.7432210727e+02 -2.7410480690e+02 4.9908354837e+02 1.7312681962e+02 0.0000e+00 0.0000e+00
       24  2    3    3    0    0 -3.9910038077e+01 -2.8044379071e+02 -1.2009155552e+02 3.1728875199e+02 7.7515414884e+01 0.0000e+00 0.0000e+00
       -6  2    1    2    0  502 +4.8203585790e+01 +3.9510265804e+02 +2.9390961366e+02 5.2416889397e+02 1.7303315385e+02 0.0000e+00 0.0000e+00
      -24  2    5    5    0    0 +4.9689169350e+01 +1.2522400641e+02 +1.3946687333e+02 2.1084809951e+02 8.2800042130e+01 0.0000e+00 0.0000e+00
        5  1    3    3  501    0 -2.2226967216e+01 -9.3878316560e+01 -1.5401325137e+02 1.8179479638e+02 4.7000000000e+00 0.0000e+00 -1.0000e+00
      -13  1    4    4    0    0 +8.2996553846e+00 -1.9566431440e+02 -8.7051312343e+01 2.1431597978e+02 0.0000000000e+00 0.0000e+00 1.0000e+00
       14  1    4    4    0    0 -4.8209693462e+01 -8.4779476312e+01 -3.3040243180e+01 1.0297277221e+02 0.0000000000e+00 0.0000e+00 -1.0000e+00
       -5  1    5    5    0  504 +1.5263911527e+01 +6.2358554844e+01 +3.8928593009e+01 7.5227001210e+01 4.7000000000e+00 0.0000e+00 1.0000e+00
       13  1    6    6    0    0 +4.4071444902e+01 +1.3527793188e+02 +1.1201908265e+02 1.8108198692e+02 0.0000000000e+00 0.0000e+00 -1.0000e+00
      -14  1    6    6    0    0 +5.6177244478e+00 -1.0053925467e+01 +2.7447790683e+01 2.9766112588e+01 0.0000000000e+00 0.0000e+00 1.0000e+00
       21  1    5    5  504  502 -1.6749495087e+01 +2.0752009678e+02 +1.1551414732e+02 2.3809379326e+02 0.0000000000e+00 0.0000e+00 1.0000e+00
       21  1    1    2  505  501 +1.3933419503e+01 -2.0780550771e+01 -2.4051190142e+01 3.4704916318e+01 0.0000000000e+00 0.0000e+00 -1.0000e+00
<mgrwt>
<rscale>  4 0.43007861E+03</rscale>
<asrwt>0</asrwt>
<pdfrwt beam="1">  1       21 0.81054690E-01 0.43008804E+03</pdfrwt>
<pdfrwt beam="2">  1       21 0.81707980E-01 0.43008804E+03</pdfrwt>
<totfact> 0.15142434E+03</totfact>
</mgrwt>
</event>
<event>
11      1 +1.4674046e+01 4.33934700e+02 7.54677100e-03 1.04473200e-01
       21 -1    0    0  503  502 +0.0000000000e+00 +0.0000000000e+00 +2.5542036173e+02 2.5542036173e+02 0.0000000000e+00 0.0000e+00 1.0000e+00
       21 -1    0    0  501  503 -0.0000000000e+00 -0.0000000000e+00 -6.9019859764e+02 6.9019859764e+02 0.0000000000e+00 0.0000e+00 -1.0000e+00
        6  2    1    2  501    0 -4.4827052254e+01 +2.4850794327e+02 -4.1011058214e+02 5.1098373416e+02 1.7072792542e+02 0.0000e+00 0.0000e+00
       24  2    3    3    0    0 +1.5639646832e+01 +7.6604215549e+01 -9.7380810754e+01 1.4900429661e+02 8.1280094198e+01 0.0000e+00 0.0000e+00
      -24  2    1    2    0    0 +4.1093327973e+01 -2.3195236511e+02 -1.6342981839e+02 2.9476008018e+02 6.8437110146e+01 0.0000e+00 0.0000e+00
        5  1    3    3  501    0 -6.0466699086e+01 +1.7190372772e+02 -3.1272977138e+02 3.6197943755e+02 4.7000000000e+00 0.0000e+00 -1.0000e+00
      -13  1    4    4    0    0 -6.7579498899e+00 +1.6133150100e+01 +1.2569110884e+01 2.1539056787e+01 0.0000000000e+00 0.0000e+00 1.0000e+00
       14  1    4    4    0    0 +2.2397596722e+01 +6.0471065449e+01 -1.0994992164e+02 1.2746523983e+02 0.0000000000e+00 0.0000e+00 -1.0000e+00
       -5  1    1    2    0  502 +3.7337242813e+00 -1.6555578155e+01 +1.3876216462e+02 1.3987514502e+02 4.7000000000e+00 0.0000e+00 1.0000e+00
       13  1    5    5    0    0 +1.3017092693e+01 -1.8888984144e+02 -1.0341868099e+02 2.1574114230e+02 0.0000000000e+00 0.0000e+00 -1.0000e+00
      -14  1    5    5    0    0 +2.8076235280e+01 -4.3062523670e+01 -6.0011137401e+01 7.9018937885e+01 0.0000000000e+00 0.0000e+00 1.0000e+00
<mgrwt>
<rscale>  2 0.39726309E+03</rscale>
<asrwt>0</asrwt>
<pdfrwt beam="1">  1       21 0.39295441E-01 0.43393466E+03</pdfrwt>
<pdfrwt beam="2">  1       21 0.10618440E+00 0.43393466E+03</pdfrwt>
<totfact> 0.38995349E+03</totfact>
</mgrwt>
</event>
<event>
13      3 +1.4674046e+01 1.11894000e+03 7.54677100e-03 9.38159700e-02
       21 -1    0    0  502  503 +0.0000000000e+00 +0.0000000000e+00 +7.4388147629e+02 7.4388147629e+02 0.0000000000e+00 0.0000e+00 1.0000e+00
        1 -1    0    0  504    0 -0.0000000000e+00 -0.0000000000e+00 -1.9345134821e+03 1.9345134821e+03 0.0000000000e+00 0.0000e+00 1.0000e+00
       24  2    1    2    0    0 +1.6699079036e+02 -5.1181610845e+01 -9.2225211023e+02 9.4223132378e+02 8.2130574937e+01 0.0000e+00 0.0000e+00
       -6  2    1    2    0  503 -5.2627979672e+02 -2.4863656337e+02 +1.4055660247e+02 6.2286953968e+02 1.7152183499e+02 0.0000e+00 0.0000e+00
      -24  2    4    4    0    0 -2.9772856167e+02 -2.1530533628e+02 +7.2758015281e+01 3.8210954265e+02 7.5599533955e+01 0.0000e+00 0.0000e+00
        5  1    1    2  501    0 +7.7531011140e+01 +1.7410475828e+02 +2.2855314462e+02 2.9762754318e+02 4.7000000000e+00 0.0000e+00 -1.0000e+00
      -13  1    3    3    0    0 +2.7987175379e+01 -3.4848121154e+01 -1.2415723599e+02 1.3195716268e+02 0.0000000000e+00 0.0000e+00 1.0000e+00
       14  1    3    3    0    0 +1.3900361498e+02 -1.6333489691e+01 -7.9809487424e+02 8.1027416111e+02 0.0000000000e+00 0.0000e+00 -1.0000e+00
       -5  1    4    4    0  503 -2.2855123505e+02 -3.3331227094e+01 +6.7798587190e+01 2.4075999702e+02 4.7000000000e+00 0.0000e+00 1.0000e+00
       13  1    5    5    0    0 -7.6875023423e+01 -5.3516319587e+01 +5.3001602663e+01 1.0762404737e+02 0.0000000000e+00 0.0000e+00 -1.0000e+00
      -14  1    5    5    0    0 -2.2085353825e+02 -1.6178901669e+02 +1.9756412618e+01 2.7448549528e+02 0.0000000000e+00 0.0000e+00 1.0000e+00
       21  1    1    2  504  501 +2.8507437970e+02 +1.6083612413e+02 -2.1479086387e+02 3.9149811748e+02 0.0000000000e+00 0.0000e+00 1.0000e+00
        1  1    1    2  502    0 -3.3163844825e+00 -3.5122708193e+01 -4.2269877878e+02 4.2416843425e+02 0.0000000000e+00 0.0000e+00 1.0000e+00
<mgrwt>
<rscale>  4 0.93605746E+03</rscale>
<asrwt>0</asrwt>
<pdfrwt beam="1">  1       21 0.11444330E+00 0.11189402E+04</pdfrwt>
<pdfrwt beam="2">  1        1 0.29761746E+00 0.11189402E+04</pdfrwt>
<totfact> 0.17426483E+01</totfact>
</mgrwt>
</event>
<event>
13      2 +1.4674046e+01 2.05609800e+02 7.54677100e-03 1.14702600e-01
       21 -1    0    0  501  503 +0.0000000000e+00 +0.0000000000e+00 +1.7967458090e+02 1.7967458090e+02 0.0000000000e+00 0.0000e+00 -1.0000e+00
        1 -1    0    0  503    0 -0.0000000000e+00 -0.0000000000e+00 -6.8963186165e+02 6.8963186165e+02 0.0000000000e+00 0.0000e+00 -1.0000e+00
        6  2    1    2  501    0 -7.0635010297e+01 +3.8977966124e+01 +4.6915742087e+01 2.0551629233e+02 1.8310454128e+02 0.0000e+00 0.0000e+00
       24  2    3    3    0    0 -6.1821911093e+01 +1.8815705913e+01 +1.0256801097e+02 1.4548752851e+02 8.0439073837e+01 0.0000e+00 0.0000e+00
       -6  2    1    2    0  502 +9.3237912714e+01 -1.0002731369e+02 -1.8899910699e+02 2.9020062682e+02 1.7261798721e+02 0.0000e+00 0.0000e+00
      -24  2    5    5    0    0 +5.1766412064e+01 -3.8923482602e+01 -1.8977165481e+02 2.1619893515e+02 8.0832540919e+01 0.0000e+00 0.0000e+00
        5  1    3    3  501    0 -8.8130992046e+00 +2.0162260211e+01 -5.5652268878e+01 6.0028763819e+01 4.7000000000e+00 0.0000e+00 -1.0000e+00
      -13  1    4    4    0    0 -4.6028889514e+01 +3.8002335862e+01 +2.6215424761e+01 6.5192673639e+01 0.0000000000e+00 0.0000e+00 1.0000e+00
       14  1    4    4    0    0 -1.5793021579e+01 -1.9186629949e+01 +7.6352586204e+01 8.0294854876e+01 0.0000000000e+00 0.0000e+00 -1.0000e+00
       -5  1    5    5    0  502 +4.1471500650e+01 -6.1103831090e+01 +7.7254782217e-01 7.4001691671e+01 4.7000000000e+00 0.0000e+00 1.0000e+00
       13  1    6    6    0    0 +1.2879486492e+01 -4.7201632904e+01 -4.6449111816e+01 6.7464029746e+01 0.0000000000e+00 0.0000e+00 -1.0000e+00
      -14  1    6    6    0    0 +3.8886925572e+01 +8.2781503015e+00 -1.4332254300e+02 1.4873490540e+02 0.0000000000e+00 0.0000e+00 1.0000e+00
        1  1    1    2  502    0 -2.2602902417e+01 +6.1049347568e+01 -3.6787391585e+02 3.7358952340e+02 0.0000000000e+00 0.0000e+00 -1.0000e+00
<mgrwt>
<rscale>  3 0.20324927E+03</rscale>
<asrwt>0</asrwt>
<pdfrwt beam="1">  1       21 0.27642244E-01 0.20560980E+03</pdfrwt>
<pdfrwt beam="2">  1        1 0.10609721E+00 0.20560980E+03</pdfrwt>
<totfact> 0.39882694E+03</totfact>
</mgrwt>
</event>
<event>
13      2 +1.4674046e+01 2.60536200e+02 7.54677100e-03 1.10709300e-01
       21 -1    0    0  501  502 +0.0000000000e+00 +0.0000000000e+00 +1.1113780609e+03 1.1113780609e+03 0.0000000000e+00 0.0000e+00 1.0000e+00
       21 -1    0    0  502  503 -0.0000000000e+00 -0.0000000000e+00 -6.6699717985e+01 6.6699717985e+01 0.0000000000e+00 0.0000e+00 -1.0000e+00
       -6  2    1    2    0  503 -6.4914703518e+01 +1.8305419337e+02 +3.4665901123e+02 4.3364917523e+02 1.7365592610e+02 0.0000e+00 0.0000e+00
      -24  2    3    3    0    0 -1.1104530411e+01 +4.5416515764e+01 +2.0288356397e+02 2.2251922056e+02 7.8530837831e+01 0.0000e+00 0.0000e+00
        6  2    1    2  501    0 +6.4914703518e+01 -1.8305419337e+02 +6.9801933167e+02 7.4442860363e+02 1.7093917655e+02 0.0000e+00 0.0000e+00
       24  2    5    5    0    0 -7.6820854934e+00 -8.1524140258e+01 +4.7913269711e+02 4.9241254412e+02 7.8719580109e+01 0.0000e+00 0.0000e+00
        5  1    5    5  501    0 +7.2596789011e+01 -1.0153005312e+02 +2.1888663456e+02 2.5201605951e+02 4.7000000000e+00 0.0000e+00 -1.0000e+00
      -13  1    6    6    0    0 +3.1758453901e+01 -4.1752992814e+01 +1.5938389164e+02 1.6779492459e+02 0.0000000000e+00 0.0000e+00 1.0000e+00
       14  1    6    6    0    0 -3.9440539394e+01 -3.9771147444e+01 +3.1974880546e+02 3.2461761953e+02 0.0000000000e+00 0.0000e+00 -1.0000e+00
       -5  1    3    3    0  504 -9.2217024138e+00 +8.2324660871e+01 +6.8217163612e+01 1.0741536666e+02 4.7000000000e+00 0.0000e+00 1.0000e+00
       13  1    4    4    0    0 +1.3368226777e+01 -4.2912773923e+00 +2.0570608479e+00 1.4189998173e+01 0.0000000000e+00 0.0000e+00 -1.0000e+00
      -14  1    4    4    0    0 -2.4472757188e+01 +4.9707793157e+01 +2.0082650312e+02 2.0832922239e+02 0.0000000000e+00 0.0000e+00 1.0000e+00
       21  1    3    3  504  503 -4.4588470693e+01 +5.5313016738e+01 +7.5558283652e+01 1.0371458802e+02 0.0000000000e+00 0.0000e+00 1.0000e+00
<mgrwt>
<rscale>  3 0.26008436E+03</rscale>
<asrwt>0</asrwt>
<pdfrwt beam="1">  1       21 0.17098123E+00 0.26053625E+03</pdfrwt>
<pdfrwt beam="2">  1       21 0.10261496E-01 0.26053625E+03</pdfrwt>
<totfact> 0.15578788E+04</totfact>
</mgrwt>
</event>
<event>
12      1 +1.4674046e+01 2.69266900e+02 7.54677100e-03 1.10181200e-01
       21 -1    0    0  501  502 +0.0000000000e+00 +0.0000000000e+00 +4.1781379862e+02 4.1781379862e+02 0.0000000000e+00 0.0000e+00 -1.0000e+00
       21 -1    0    0  502  503 -0.0000000000e+00 -0.0000000000e+00 -1.7525136799e+02 1.7525136799e+02 0.0000000000e+00 0.0000e+00 1.0000e+00
       -6  2    1    2    0  503 -9.8336064458e+01 -1.8221461424e+02 +8.8074418637e+01 2.8330504997e+02 1.7214093327e+02 0.0000e+00 0.0000e+00
      -24  2    3    3    0    0 -1.1993572626e+02 -1.7026228432e+02 +3.6817354046e+01 2.2621932276e+02 8.0285992159e+01 0.0000e+00 0.0000e+00
        6  2    1    2  501    0 +9.8336064458e+01 +1.8221461424e+02 +1.5448801199e+02 3.0976011663e+02 1.7091704652e+02 0.0000e+00 0.0000e+00
       24  2    5    5    0    0 +1.2391875031e+02 +1.8440955264e+02 +1.5693704000e+02 2.8354219703e+02 8.0026265619e+01 0.0000e+00 0.0000e+00
        5  1    5    5  501    0 -2.5582685851e+01 -2.1949384050e+00 -2.4490280115e+00 2.6217919600e+01 4.7000000000e+00 0.0000e+00 -1.0000e+00
      -13  1    6    6    0    0 +6.1616893263e+01 +8.6453174020e+01 +2.7492084752e+01 1.0966589058e+02 0.0000000000e+00 0.0000e+00 1.0000e+00
       14  1    6    6    0    0 +6.2301857046e+01 +9.7956378624e+01 +1.2944495525e+02 1.7387630645e+02 0.0000000000e+00 0.0000e+00 -1.0000e+00
       -5  1    3    3    0  503 +2.1599661803e+01 -1.1952329918e+01 +5.1257064591e+01 5.7085727208e+01 4.7000000000e+00 0.0000e+00 1.0000e+00
       13  1    4    4    0    0 -1.3733012272e+01 -4.9008391754e+00 +2.5488594102e+01 2.9364643366e+01 0.0000000000e+00 0.0000e+00 -1.0000e+00
      -14  1    4    4    0    0 -1.0620271399e+02 -1.6536144515e+02 +1.1328759945e+01 1.9685467940e+02 0.0000000000e+00 0.0000e+00 1.0000e+00
<mgrwt>
<rscale>  2 0.26907147E+03</rscale>
<asrwt>0</asrwt>
<pdfrwt beam="1">  1       21 0.64279045E-01 0.26926687E+03</pdfrwt>
<pdfrwt beam="2">  1       21 0.26961749E-01 0.26926687E+03</pdfrwt>
<totfact> 0.28184814E+04</totfact>
</mgrwt>
</event>
<event>
12      1 +1.4674046e+01 2.27963100e+02 7.54677100e-03 1.12808200e-01
       -4 -1    0    0    0  501 -0.0000000000e+00 +0.0000000000e+00 +8.2051828340e+01 8.2051828340e+01 0.0000000000e+00 0.0000e+00 -1.0000e+00
        4 -1    0    0  502    0 +0.0000000000e+00 -0.0000000000e+00 -6.4039541096e+02 6.4039541096e+02 0.0000000000e+00 0.0000e+00 1.0000e+00
        6  2    1    2  502    0 +2.3251024631e+01 +1.4830591537e+02 -3.1822367508e+02 3.9202138201e+02 1.7285601491e+02 0.0000e+00 0.0000e+00
       24  2    3    3    0    0 +7.5678997062e+01 +8.0052443091e+01 -1.4824292951e+02 2.0143603988e+02 8.0404028322e+01 0.0000e+00 0.0000e+00
       -6  2    1    2    0  501 -2.3251024631e+01 -1.4830591537e+02 -2.4011990755e+02 3.3042585730e+02 1.7025986752e+02 0.0000e+00 0.0000e+00
      -24  2    5    5    0    0 +4.0601976426e+01 -6.8728449405e+01 -7.4798439203e+01 1.3609866741e+02 8.0968639092e+01 0.0000e+00 0.0000e+00
        5  1    3    3  502    0 -5.2427972431e+01 +6.8253472281e+01 -1.6998074556e+02 1.9058534213e+02 4.7000000000e+00 0.0000e+00 -1.0000e+00
      -13  1    4    4    0    0 -4.3070453241e+00 +3.8836019379e+01 -7.8159049277e+01 8.7382057795e+01 0.0000000000e+00 0.0000e+00 1.0000e+00
       14  1    4    4    0    0 +7.9986042386e+01 +4.1216423712e+01 -7.0083880234e+01 1.1405398208e+02 0.0000000000e+00 0.0000e+00 -1.0000e+00
       -5  1    5    5    0  501 -6.3853001057e+01 -7.9577465967e+01 -1.6532146834e+02 1.9432718989e+02 4.7000000000e+00 0.0000e+00 1.0000e+00
       13  1    6    6    0    0 -7.4080319107e+00 -2.8527660962e+01 +9.6086440242e+00 3.1000522846e+01 0.0000000000e+00 0.0000e+00 -1.0000e+00
      -14  1    6    6    0    0 +4.8010008337e+01 -4.0200788443e+01 -8.4407083227e+01 1.0509814456e+02 0.0000000000e+00 0.0000e+00 1.0000e+00
<mgrwt>
<rscale>  2 0.22796306E+03</rscale>
<asrwt>0</asrwt>
<pdfrwt beam="2">  1        4 0.98522373E-01 0.22796306E+03</pdfrwt>
<pdfrwt beam="1">  1       -4 0.12623358E-01 0.22796306E+03</pdfrwt>
<totfact> 0.81427224E+01</totfact>
</mgrwt>
</event>
<event>
12      2 +1.4674046e+01 3.30554500e+02 7.54677100e-03 1.07969700e-01
       21 -1    0    0  504  502 +0.0000000000e+00 +0.0000000000e+00 +1.3962992941e+02 1.3962992941e+02 0.0000000000e+00 0.0000e+00 1.0000e+00
       21 -1    0    0  502  503 -0.0000000000e+00 -0.0000000000e+00 -1.3289182670e+03 1.3289182670e+03 0.0000000000e+00 0.0000e+00 -1.0000e+00
       -6  2    1    2    0  503 -1.8340932378e+02 -6.1373046457e+01 -7.3543532225e+02 7.7980981225e+02 1.7272116023e+02 0.0000e+00 0.0000e+00
      -24  2    3    3    0    0 -8.6328861198e+01 -7.9924979233e+01 -5.6475346921e+02 5.8252023984e+02 8.0886799026e+01 0.0000e+00 0.0000e+00
       24  2    1    2    0    0 +2.5278727268e+02 +1.7153819613e+01 -3.9129865746e+02 4.7305611330e+02 8.0447425378e+01 0.0000e+00 0.0000e+00
        5  1    1    2  501    0 -5.9459419817e+01 +2.5544643964e+01 -1.2984135485e+02 1.4515102091e+02 4.7000000000e+00 0.0000e+00 -1.0000e+00
      -13  1    5    5    0    0 +1.7563284826e+02 +3.7169726260e+01 -3.1584026652e+02 3.6329541684e+02 0.0000000000e+00 0.0000e+00 1.0000e+00
       14  1    5    5    0    0 +7.7154424415e+01 -2.0015906647e+01 -7.5458390934e+01 1.0976069646e+02 0.0000000000e+00 0.0000e+00 -1.0000e+00
       -5  1    3    3    0  503 -9.7080462584e+01 +1.8551932777e+01 -1.7068185303e+02 1.9728957240e+02 4.7000000000e+00 0.0000e+00 1.0000e+00
       13  1    4    4    0    0 -7.7435279849e+01 -4.3485791888e+01 -2.4548113168e+02 2.6105214551e+02 0.0000000000e+00 0.0000e+00 -1.0000e+00
      -14  1    4    4    0    0 -8.8935813485e+00 -3.6439187345e+01 -3.1927233753e+02 3.2146809434e+02 0.0000000000e+00 0.0000e+00 1.0000e+00
       21  1    1    2  504  501 -9.9185290781e+00 +1.8674582879e+01 +6.7286996946e+01 7.0531249973e+01 0.0000000000e+00 0.0000e+00 1.0000e+00
<mgrwt>
<rscale>  3 0.31135764E+03</rscale>
<asrwt>0</asrwt>
<pdfrwt beam="1">  1       21 0.21481527E-01 0.33055449E+03</pdfrwt>
<pdfrwt beam="2">  1       21 0.20444897E+00 0.33055449E+03</pdfrwt>
<totfact> 0.22796775E+03</totfact>
</mgrwt>
</event>
<event>
12      1 +1.4674046e+01 2.06855800e+02 7.54677100e-03 1.14431600e-01
       21 -1    0    0  503  502 +0.0000000000e+00 +0.0000000000e+00 +1.3446677380e+02 1.3446677380e+02 0.0000000000e+00 0.0000e+00 1.0000e+00
       21 -1    0    0  501  503 -0.0000000000e+00 -0.0000000000e+00 -3.8988965846e+02 3.8988965846e+02 0.0000000000e+00 0.0000e+00 -1.0000e+00
        6  2    1    2  501    0 +1.1208404924e+02 +9.4991096149e+00 -2.4180811892e+02 3.1821456360e+02 1.7359802688e+02 0.0000e+00 0.0000e+00
       24  2    3    3    0    0 +1.1559578875e+02 -4.5203575242e+01 -1.4819745164e+02 2.0963388818e+02 8.1105689153e+01 0.0000e+00 0.0000e+00
       -6  2    1    2    0  502 -1.1208404924e+02 -9.4991096149e+00 -1.3614765739e+01 2.0614186866e+02 1.7220929415e+02 0.0000e+00 0.0000e+00
      -24  2    5    5    0    0 -8.2252783480e+01 -1.0617437914e+01 -7.4659424075e+01 1.3802655918e+02 8.1234543493e+01 0.0000e+00 0.0000e+00
        5  1    3    3  501    0 -3.5117395056e+00 +5.4702684857e+01 -9.3610667287e+01 1.0858067542e+02 4.7000000000e+00 0.0000e+00 -1.0000e+00
      -13  1    4    4    0    0 +3.8042412907e+01 +1.7417367458e+00 -2.6652591337e+00 3.8175416604e+01 0.0000000000e+00 0.0000e+00 1.0000e+00
       14  1    4    4    0    0 +7.7553375839e+01 -4.6945311987e+01 -1.4553219250e+02 1.7145847158e+02 0.0000000000e+00 0.0000e+00 -1.0000e+00
       -5  1    5    5    0  502 -2.9831265760e+01 +1.1183282994e+00 +6.1044658336e+01 6.8115309486e+01 4.7000000000e+00 0.0000e+00 1.0000e+00
       13  1    6    6    0    0 -3.4270237778e+01 +3.2861000565e+01 -1.4505978465e+01 4.9645925984e+01 0.0000000000e+00 0.0000e+00 -1.0000e+00
      -14  1    6    6    0    0 -4.7982545702e+01 -4.3478438480e+01 -6.0153445610e+01 8.8380633192e+01 0.0000000000e+00 0.0000e+00 1.0000e+00
<mgrwt>
<rscale>  2 0.20656422E+03</rscale>
<asrwt>0</asrwt>
<pdfrwt beam="1">  1       21 0.20687196E-01 0.20685585E+03</pdfrwt>
<pdfrwt beam="2">  1       21 0.59983025E-01 0.20685585E+03</pdfrwt>
<totfact> 0.55805135E+04</totfact>
</mgrwt>
</event>
<event>
12      1 +1.4674046e+01 2.37485800e+02 7.54677100e-03 1.12268000e-01
       21 -1    0    0  501  502 +0.0000000000e+00 +0.0000000000e+00 +5.5642062742e+02 5.5642062742e+02 0.0000000000e+00 0.0000e+00 1.0000e+00
       21 -1    0    0  502  503 -0.0000000000e+00 -0.0000000000e+00 -3.7985365900e+02 3.7985365900e+02 0.0000000000e+00 0.0000e+00 1.0000e+00
       -6  2    1    2    0  503 +1.0234113826e+02 -1.2550428381e+02 -3.1433173189e+02 3.9395930364e+02 1.7370797740e+02 0.0000e+00 0.0000e+00
      -24  2    3    3    0    0 +9.6338858957e+01 -6.6234090589e+01 -1.0937233366e+02 1.8046591244e+02 8.3291702360e+01 0.0000e+00 0.0000e+00
        6  2    1    2  501    0 -1.0234113826e+02 +1.2550428381e+02 +4.9089870031e+02 5.4231498279e+02 1.6400906303e+02 0.0000e+00 0.0000e+00
       24  2    5    5    0    0 -1.1856686559e+02 +1.4401793304e+02 +4.5821847845e+02 5.0113104981e+02 7.9805315861e+01 0.0000e+00 0.0000e+00
        5  1    5    5  501    0 +1.6225727326e+01 -1.8513649221e+01 +3.2680221858e+01 4.1183932977e+01 4.7000000000e+00 0.0000e+00 -1.0000e+00
      -13  1    6    6    0    0 -9.2756802928e+01 +1.0656132274e+02 +4.1499016819e+02 4.3837880844e+02 0.0000000000e+00 0.0000e+00 1.0000e+00
       14  1    6    6    0    0 -2.5810062662e+01 +3.7456610291e+01 +4.3228310259e+01 6.2752241370e+01 0.0000000000e+00 0.0000e+00 -1.0000e+00
       -5  1    3    3    0  503 +6.0022793068e+00 -5.9270193226e+01 -2.0495939823e+02 2.1349339120e+02 4.7000000000e+00 0.0000e+00 1.0000e+00
       13  1    4    4    0    0 +4.6920059495e+00 +1.7350091298e+01 -5.8429450057e+00 1.8899222054e+01 0.0000000000e+00 0.0000e+00 -1.0000e+00
      -14  1    4    4    0    0 +9.1646853008e+01 -8.3584181888e+01 -1.0352938865e+02 1.6156669039e+02 0.0000000000e+00 0.0000e+00 1.0000e+00
<mgrwt>
<rscale>  2 0.23571627E+03</rscale>
<asrwt>0</asrwt>
<pdfrwt beam="1">  1       21 0.85603173E-01 0.23748578E+03</pdfrwt>
<pdfrwt beam="2">  1       21 0.58439025E-01 0.23748578E+03</pdfrwt>
<totfact> 0.31211277E+03</totfact>
</mgrwt>
</event>
<event>
13      2 +1.4674046e+01 1.90162900e+02 7.54677100e-03 1.15971500e-01
       21 -1    0    0  503  502 +0.0000000000e+00 +0.0000000000e+00 +2.5436287803e+02 2.5436287803e+02 0.0000000000e+00 0.0000e+00 1.0000e+00
       21 -1    0    0  501  503 -0.0000000000e+00 -0.0000000000e+00 -5.7449733657e+02 5.7449733657e+02 0.0000000000e+00 0.0000e+00 1.0000e+00
        6  2    1    2  501    0 -7.6107167471e+01 +3.3502090616e+01 -4.9239483260e+02 5.2617117731e+02 1.6579730288e+02 0.0000e+00 0.0000e+00
       24  2    3    3    0    0 -4.3124356840e+01 -4.3821916645e+01 -2.8432070774e+02 3.0170781876e+02 8.0057932260e+01 0.0000e+00 0.0000e+00
       -6  2    1    2    0  504 +2.9671806708e+01 -5.8014720120e+01 +9.0333029306e+01 2.0537921480e+02 1.7255272187e+02 0.0000e+00 0.0000e+00
      -24  2    5    5    0    0 -2.9849331798e+01 +1.0229005252e+01 +1.4572075344e+01 8.7219221035e+01 7.9995199736e+01 0.0000e+00 0.0000e+00
        5  1    3    3  501    0 -3.2982810631e+01 +7.7324007261e+01 -2.0807412486e+02 2.2446335855e+02 4.7000000000e+00 0.0000e+00 -1.0000e+00
      -13  1    4    4    0    0 -3.8107484757e+01 -2.5792067245e+01 -2.7825561257e+02 2.8203474441e+02 0.0000000000e+00 0.0000e+00 1.0000e+00
       14  1    4    4    0    0 -5.0168720828e+00 -1.8029849400e+01 -6.0650951712e+00 1.9673074348e+01 0.0000000000e+00 0.0000e+00 -1.0000e+00
       -5  1    5    5    0  504 +5.9521138506e+01 -6.8243725371e+01 +7.5760953962e+01 1.1815999377e+02 4.7000000000e+00 0.0000e+00 1.0000e+00
       13  1    6    6    0    0 +1.0922741265e+01 +3.5733440496e+01 +1.5604197597e+00 3.7398127710e+01 0.0000000000e+00 0.0000e+00 -1.0000e+00
      -14  1    6    6    0    0 -4.0772073063e+01 -2.5504435244e+01 +1.3011655585e+01 4.9821093324e+01 0.0000000000e+00 0.0000e+00 1.0000e+00
       21  1    1    2  504  502 +4.6435360763e+01 +2.4512629504e+01 +8.1927344759e+01 9.7309822493e+01 0.0000000000e+00 0.0000e+00 -1.0000e+00
<mgrwt>
<rscale>  3 0.18861713E+03</rscale>
<asrwt>0</asrwt>
<pdfrwt beam="1">  1       21 0.39132750E-01 0.19016286E+03</pdfrwt>
<pdfrwt beam="2">  1       21 0.88384206E-01 0.19016286E+03</pdfrwt>
<totfact> 0.69099690E+03</totfact>
</mgrwt>
</event>
<event>
12      1 +1.4674046e+01 2.51193700e+02 7.54677100e-03 1.11261900e-01
       21 -1    0    0  501  502 +0.0000000000e+00 +0.0000000000e+00 +1.2198463587e+02 1.2198463587e+02 0.0000000000e+00 0.0000e+00 -1.0000e+00
       21 -1    0    0  502  503 -0.0000000000e+00 -0.0000000000e+00 -5.2074836211e+02 5.2074836211e+02 0.0000000000e+00 0.0000e+00 -1.0000e+00
       -6  2    1    2    0  503 +9.1471023607e+01 -1.5705625174e+02 -2.2857499696e+02 3.3931501929e+02 1.7278465993e+02 0.0000e+00 0.0000e+00
      -24  2    3    3    0    0 +1.1415791394e+02 -1.7337581711e+02 -1.9817981439e+02 2.9775806643e+02 7.9331103741e+01 0.0000e+00 0.0000e+00
        6  2    1    2  501    0 -9.1471023607e+01 +1.5705625174e+02 -1.7018872928e+02 3.0341797869e+02 1.7339161412e+02 0.0000e+00 0.0000e+00
       24  2    5    5    0    0 -3.8173292045e+01 +9.3661773470e+01 -1.7806118800e+02 2.2008987016e+02 8.0647605309e+01 0.0000e+00 0.0000e+00
        5  1    5    5  501    0 -5.3297731562e+01 +6.3394478267e+01 +7.8724587158e+00 8.3328108527e+01 4.7000000000e+00 0.0000e+00 -1.0000e+00
      -13  1    6    6    0    0 -2.2038162183e+01 -1.0134676393e+01 -3.6055032279e+01 4.3455236861e+01 0.0000000000e+00 0.0000e+00 1.0000e+00
       14  1    6    6    0    0 -1.6135129862e+01 +1.0379644986e+02 -1.4200615572e+02 1.7663463330e+02 0.0000000000e+00 0.0000e+00 -1.0000e+00
       -5  1    3    3    0  503 -2.2686890332e+01 +1.6319565373e+01 -3.0395182577e+01 4.1556952857e+01 4.7000000000e+00 0.0000e+00 1.0000e+00
       13  1    4    4    0    0 +6.3525032369e+01 -3.1960610995e+01 -7.6531877031e+01 1.0447027613e+02 0.0000000000e+00 0.0000e+00 -1.0000e+00
      -14  1    4    4    0    0 +5.0632881570e+01 -1.4141520612e+02 -1.2164793735e+02 1.9328779030e+02 0.0000000000e+00 0.0000e+00 1.0000e+00
<mgrwt>
<rscale>  2 0.25108897E+03</rscale>
<asrwt>0</asrwt>
<pdfrwt beam="1">  1       21 0.18766867E-01 0.25119368E+03</pdfrwt>
<pdfrwt beam="2">  1       21 0.80115131E-01 0.25119368E+03</pdfrwt>
<totfact> 0.34613166E+04</totfact>
</mgrwt>
</event>
<event>
13      2 +1.4674046e+01 2.71188400e+02 7.54677100e-03 1.10073300e-01
       21 -1    0    0  504  502 +0.0000000000e+00 +0.0000000000e+00 +1.2974387505e+03 1.2974387505e+03 0.0000000000e+00 0.0000e+00 -1.0000e+00
       21 -1    0    0  502  503 -0.0000000000e+00 -0.0000000000e+00 -2.1289109147e+02 2.1289109147e+02 0.0000000000e+00 0.0000e+00 -1.0000e+00
       -6  2    1    2    0  503 +9.1842978827e+01 -1.7795093173e+02 -2.7081467622e+01 2.6573575991e+02 1.7257004764e+02 0.0000e+00 0.0000e+00
      -24  2    3    3    0    0 +7.8009974329e+01 -1.2505922680e+02 -8.4147443303e+01 1.8656821577e+02 7.7469610943e+01 0.0000e+00 0.0000e+00
        6  2    1    2  501    0 -1.3126137053e+02 +1.8862159588e+02 +2.4873169482e+02 3.8073086919e+02 1.7401403656e+02 0.0000e+00 0.0000e+00
       24  2    5    5    0    0 -4.9957242632e+01 +1.6210278840e+01 +1.0180278398e+02 1.4001066169e+02 8.0502666607e+01 0.0000e+00 0.0000e+00
        5  1    5    5  501    0 -8.1304127903e+01 +1.7241131704e+02 +1.4692891084e+02 2.4072020750e+02 4.7000000000e+00 0.0000e+00 -1.0000e+00
      -13  1    6    6    0    0 +1.0432393586e+01 -1.0636334504e+01 +5.9975597044e+01 6.1798371244e+01 0.0000000000e+00 0.0000e+00 1.0000e+00
       14  1    6    6    0    0 -6.0389636218e+01 +2.6846613344e+01 +4.1827186935e+01 7.8212290450e+01 0.0000000000e+00 0.0000e+00 -1.0000e+00
       -5  1    3    3    0  503 +1.3833004498e+01 -5.2891704932e+01 +5.7065975681e+01 7.9167544136e+01 4.7000000000e+00 0.0000e+00 1.0000e+00
       13  1    4    4    0    0 +3.8955137166e+01 -8.3064957080e+01 -9.0498954226e+01 1.2886950967e+02 0.0000000000e+00 0.0000e+00 -1.0000e+00
      -14  1    4    4    0    0 +3.9054837163e+01 -4.1994269716e+01 +6.3515109222e+00 5.7698706101e+01 0.0000000000e+00 0.0000e+00 1.0000e+00
       21  1    1    2  504  501 +3.9418391708e+01 -1.0670664150e+01 +8.6289743185e+02 8.6386321288e+02 0.0000000000e+00 0.0000e+00 -1.0000e+00
<mgrwt>
<rscale>  3 0.27095700E+03</rscale>
<asrwt>0</asrwt>
<pdfrwt beam="1">  1       21 0.19960596E+00 0.27118837E+03</pdfrwt>
<pdfrwt beam="2">  1       21 0.32752476E-01 0.27118837E+03</pdfrwt>
<totfact> 0.11252815E+03</totfact>
</mgrwt>
</event>
<event>
12      1 +1.4674046e+01 2.13591700e+02 7.54677100e-03 1.13891500e-01
       21 -1    0    0  501  502 +0.0000000000e+00 +0.0000000000e+00 +3.2977633091e+02 3.2977633091e+02 0.0000000000e+00 0.0000e+00 -1.0000e+00
       21 -1    0    0  502  503 -0.0000000000e+00 -0.0000000000e+00 -2.4354310882e+02 2.4354310882e+02 0.0000000000e+00 0.0000e+00 -1.0000e+00
       -6  2    1    2    0  503 -7.0605186502e+01 -1.0361133762e+02 -1.4572441008e+02 2.5856723940e+02 1.7291909078e+02 0.0000e+00 0.0000e+00
      -24  2    3    3    0    0 -2.7164269162e+01 -2.1824947708e+00 -1.3094994396e+01 8.5976465125e+01 8.0484861152e+01 0.0000e+00 0.0000e+00
        6  2    1    2  501    0 +7.0605186502e+01 +1.0361133762e+02 +2.3195763217e+02 3.1475220032e+02 1.7188427165e+02 0.0000e+00 0.0000e+00
       24  2    5    5    0    0 +5.5785838692e+01 +9.5717474247e+01 +7.3749569564e+01 1.5558622650e+02 8.0586476481e+01 0.0000e+00 0.0000e+00
        5  1    5    5  501    0 +1.4819347810e+01 +7.8938633696e+00 +1.5820806261e+02 1.5916597382e+02 4.7000000000e+00 0.0000e+00 -1.0000e+00
      -13  1    6    6    0    0 -1.0437618153e+01 -5.5230718891e+00 +1.9958569151e+01 2.3190357444e+01 0.0000000000e+00 0.0000e+00 1.0000e+00
       14  1    6    6    0    0 +6.6223456845e+01 +1.0124054614e+02 +5.3791000413e+01 1.3239586906e+02 0.0000000000e+00 0.0000e+00 -1.0000e+00
       -5  1    3    3    0  503 -4.3440917339e+01 -1.0142884285e+02 -1.3262941569e+02 1.7259077428e+02 4.7000000000e+00 0.0000e+00 1.0000e+00
       13  1    4    4    0    0 -1.8931196199e+01 -1.5621813921e+01 -4.4510433485e+01 5.0829223373e+01 0.0000000000e+00 0.0000e+00 -1.0000e+00
      -14  1    4    4    0    0 -8.2330729631e+00 +1.3439319150e+01 +3.1415439089e+01 3.5147241752e+01 0.0000000000e+00 0.0000e+00 1.0000e+00
<mgrwt>
<rscale>  2 0.21338217E+03</rscale>
<asrwt>0</asrwt>
<pdfrwt beam="1">  1       21 0.50734820E-01 0.21359170E+03</pdfrwt>
<pdfrwt beam="2">  1       21 0.37468171E-01 0.21359170E+03</pdfrwt>
<totfact> 0.25094540E+04</totfact>
</mgrwt>
</event>
<event>
13      3 +1.4674046e+01 3.62695300e+02 7.54677100e-03 1.05877700e-01
       21 -1    0    0  504  503 +0.0000000000e+00 +0.0000000000e+00 +3.7061998924e+02 3.7061998924e+02 0.0000000000e+00 0.0000e+00 -1.0000e+00
        1 -1    0    0  503    0 -0.0000000000e+00 -0.0000000000e+00 -1.8428694387e+03 1.8428694387e+03 0.0000000000e+00 0.0000e+00 -1.0000e+00
      -24  2    1    2    0    0 -8.0083245819e+01 -5.3112238749e+01 -1.0556417868e+01 1.2682177273e+02 8.2085856973e+01 0.0000e+00 0.0000e+00
        6  2    1    2  501    0 +2.0061032113e+02 +2.5486866378e+02 -2.4080762912e+02 4.4143042807e+02 1.7796059076e+02 0.0000e+00 0.0000e+00
       24  2    4    4    0    0 +8.5993911221e+01 +3.1581569503e+01 -5.7800607326e+01 1.3077353065e+02 7.3269760552e+01 0.0000e+00 0.0000e+00
        5  1    4    4  501    0 +1.1461640991e+02 +2.2328709427e+02 -1.8300702179e+02 3.1065689742e+02 4.7000000000e+00 0.0000e+00 -1.0000e+00
      -13  1    5    5    0    0 +2.8957714448e+01 +4.5204411511e+01 -4.6567072959e+01 7.1066731528e+01 0.0000000000e+00 0.0000e+00 1.0000e+00
       14  1    5    5    0    0 +5.7036196773e+01 -1.3622842008e+01 -1.1233534367e+01 5.9706799119e+01 0.0000000000e+00 0.0000e+00 -1.0000e+00
       -5  1    1    2    0  502 -4.0668868649e+00 -2.1167390164e+02 +5.8939885818e+01 2.1981442251e+02 4.7000000000e+00 0.0000e+00 1.0000e+00
       13  1    3    3    0    0 -6.6903979211e+01 -3.9084783462e+01 +2.9078454690e+01 8.2760614181e+01 0.0000000000e+00 0.0000e+00 -1.0000e+00
      -14  1    3    3    0    0 -1.3179266608e+01 -1.4027455287e+01 -3.9634872558e+01 4.4061158551e+01 0.0000000000e+00 0.0000e+00 1.0000e+00
       21  1    1    2  504  501 -1.5192973802e+01 -3.5218469344e+01 +6.5302456981e+01 7.5733598380e+01 0.0000000000e+00 0.0000e+00 -1.0000e+00
        1  1    1    2  502    0 -1.0126721465e+02 +4.5135945951e+01 -1.3451277453e+03 1.3496892063e+03 0.0000000000e+00 0.0000e+00 -1.0000e+00
<mgrwt>
<rscale>  4 0.35951378E+03</rscale>
<asrwt>0</asrwt>
<pdfrwt beam="1">  1       21 0.57018461E-01 0.36269526E+03</pdfrwt>
<pdfrwt beam="2">  1        1 0.28351837E+00 0.36269526E+03</pdfrwt>
<totfact> 0.12617677E+02</totfact>
</mgrwt>
</event>
<event>
12      1 +1.4674046e+01 1.86020500e+02 7.54677100e-03 1.16251600e-01
       21 -1    0    0  501  502 +0.0000000000e+00 +0.0000000000e+00 +3.3756703863e+02 3.3756703863e+02 0.0000000000e+00 0.0000e+00 -1.0000e+00
       21 -1    0    0  502  503 -0.0000000000e+00 -0.0000000000e+00 -1.2072824197e+02 1.2072824197e+02 0.0000000000e+00 0.0000e+00 1.0000e+00
       -6  2    1    2    0  503 +1.3642913141e+01 +5.9514414347e+01 +1.7475059489e+01 1.8683955322e+02 1.7571438856e+02 0.0000e+00 0.0000e+00
      -24  2    3    3    0    0 +1.6083915177e+01 -3.3796557483e+01 -6.9326544441e+00 9.0243888438e+01 8.1822967910e+01 0.0000e+00 0.0000e+00
        6  2    1    2  501    0 -1.3642913141e+01 -5.9514414347e+01 +1.9936373718e+02 2.7145572738e+02 1.7382237380e+02 0.0000e+00 0.0000e+00
       24  2    5    5    0    0 +5.9763812217e+01 -2.9579171596e+01 +1.1588858596e+02 1.5623916192e+02 8.0832361828e+01 0.0000e+00 0.0000e+00
        5  1    5    5  501    0 -7.3406725357e+01 -2.9935242751e+01 +8.3475151220e+01 1.1521656546e+02 4.7000000000e+00 0.0000e+00 -1.0000e+00
      -13  1    6    6    0    0 +4.3752751974e+01 +2.3108182610e+01 +6.0153274177e+01 7.7889073707e+01 0.0000000000e+00 0.0000e+00 1.0000e+00
       14  1    6    6    0    0 +1.6011060243e+01 -5.2687354206e+01 +5.5735311779e+01 7.8350088209e+01 0.0000000000e+00 0.0000e+00 -1.0000e+00
       -5  1    3    3    0  503 -2.4410020363e+00 +9.3310971830e+01 +2.4407713933e+01 9.6595664780e+01 4.7000000000e+00 0.0000e+00 1.0000e+00
       13  1    4    4    0    0 -1.9019890314e+00 -4.9061839399e+01 +2.1242211711e+01 5.3496852299e+01 0.0000000000e+00 0.0000e+00 -1.0000e+00
      -14  1    4    4    0    0 +1.7985904208e+01 +1.5265281917e+01 -2.8174866155e+01 3.6747036139e+01 0.0000000000e+00 0.0000e+00 1.0000e+00
<mgrwt>
<rscale>  2 0.18557239E+03</rscale>
<asrwt>0</asrwt>
<pdfrwt beam="1">  1       21 0.51933390E-01 0.18602054E+03</pdfrwt>
<pdfrwt beam="2">  1       21 0.18573576E-01 0.18602054E+03</pdfrwt>
<totfact> 0.93485022E+04</totfact>
</mgrwt>
</event>
<event>
12      1 +1.4674046e+01 2.04767400e+02 7.54677100e-03 1.14594400e-01
       21 -1    0    0  503  502 +0.0000000000e+00 +0.0000000000e+00 +2.0486267939e+02 2.0486267939e+02 0.0000000000e+00 0.0000e+00 1.0000e+00
       21 -1    0    0  501  503 -0.0000000000e+00 -0.0000000000e+00 -2.0386623254e+02 2.0386623254e+02 0.0000000000e+00 0.0000e+00 1.0000e+00
        6  2    1    2  501    0 -3.0485361994e+00 -1.0881744995e+02 -3.0729243556e-01 2.0476763213e+02 1.7343343897e+02 0.0000e+00 0.0000e+00
       24  2    3    3    0    0 -1.1963161850e+01 -1.3597693115e+02 -3.2478191385e+01 1.6147600813e+02 7.9917615338e+01 0.0000e+00 0.0000e+00
       -6  2    1    2    0  502 +3.0485361994e+00 +1.0881744995e+02 +1.3037392848e+00 2.0396127980e+02 1.7247600684e+02 0.0000e+00 0.0000e+00
      -24  2    5    5    0    0 -6.3215497952e+01 +8.2454465798e+01 -2.1858047848e+00 1.3240573443e+02 8.2046100794e+01 0.0000e+00 0.0000e+00
        5  1    3    3  501    0 +8.9146256502e+00 +2.7159481197e+01 +3.2170898949e+01 4.3291624000e+01 4.7000000000e+00 0.0000e+00 -1.0000e+00
      -13  1    4    4    0    0 -3.1754480897e+01 -1.4698368992e+01 -3.0870371025e+00 3.5127181870e+01 0.0000000000e+00 0.0000e+00 1.0000e+00
       14  1    4    4    0    0 +1.9791319047e+01 -1.2127856215e+02 -2.9391154282e+01 1.2634882626e+02 0.0000000000e+00 0.0000e+00 -1.0000e+00
       -5  1    5    5    0  502 +6.6264034152e+01 +2.6362984151e+01 +3.4895440697e+00 7.1555545370e+01 4.7000000000e+00 0.0000e+00 1.0000e+00
       13  1    6    6    0    0 +3.3784392979e+00 -1.4336202709e+01 -2.3716777725e+00 1.4918626467e+01 0.0000000000e+00 0.0000e+00 -1.0000e+00
      -14  1    6    6    0    0 -6.6593937250e+01 +9.6790668506e+01 +1.8587298767e-01 1.1748710796e+02 0.0000000000e+00 0.0000e+00 1.0000e+00
<mgrwt>
<rscale>  2 0.20456453E+03</rscale>
<asrwt>0</asrwt>
<pdfrwt beam="1">  1       21 0.31517335E-01 0.20476740E+03</pdfrwt>
<pdfrwt beam="2">  1       21 0.31364036E-01 0.20476740E+03</pdfrwt>
<totfact> 0.94066686E+04</totfact>
</mgrwt>
</event>
<event>
12      1 +1.4674046e+01 2.22196100e+02 7.54677100e-03 1.13256500e-01
       21 -1    0    0  503  502 +0.0000000000e+00 +0.0000000000e+00 +6.9821677559e+02 6.9821677559e+02 0.0000000000e+00 0.0000e+00 1.0000e+00
       21 -1    0    0  501  503 -0.0000000000e+00 -0.0000000000e+00 -7.2776572482e+01 7.2776572482e+01 0.0000000000e+00 0.0000e+00 1.0000e+00
        6  2    1    2  501    0 +2.1743792218e+01 -1.3392646405e+02 +2.3875286871e+02 3.2501332303e+02 1.7384371590e+02 0.0000e+00 0.0000e+00
       24  2    3    3    0    0 +5.3205448574e+01 -1.3837208196e+02 +1.3254007366e+02 2.1405005356e+02 7.9201650741e+01 0.0000e+00 0.0000e+00
       -6  2    1    2    0  502 -2.1743792218e+01 +1.3392646405e+02 +3.8668733440e+02 4.4598002504e+02 1.7596021676e+02 0.0000e+00 0.0000e+00
      -24  2    5    5    0    0 -7.6775788122e+01 +1.1190063302e+02 +2.3134080092e+02 2.7964213619e+02 7.9151025561e+01 0.0000e+00 0.0000e+00
        5  1    3    3  501    0 -3.1461656355e+01 +4.4456179084e+00 +1.0621279505e+02 1.1096326947e+02 4.7000000000e+00 0.0000e+00 -1.0000e+00
      -13  1    4    4    0    0 +2.7945345896e+01 -1.3461427796e+02 +8.9645705610e+01 1.6412890885e+02 0.0000000000e+00 0.0000e+00 1.0000e+00
       14  1    4    4    0    0 +2.5260102678e+01 -3.7578039969e+00 +4.2894368049e+01 4.9921144704e+01 0.0000000000e+00 0.0000e+00 -1.0000e+00
       -5  1    5    5    0  502 +5.5031995904e+01 +2.2025831023e+01 +1.5534653348e+02 1.6633788886e+02 4.7000000000e+00 0.0000e+00 1.0000e+00
       13  1    6    6    0    0 -2.3339509886e+01 +6.4630753067e+01 +5.0616993385e+01 8.5346042574e+01 0.0000000000e+00 0.0000e+00 -1.0000e+00
      -14  1    6    6    0    0 -5.3436278237e+01 +4.7269879958e+01 +1.8072380753e+02 1.9429609361e+02 0.0000000000e+00 0.0000e+00 1.0000e+00
<mgrwt>
<rscale>  2 0.22177680E+03</rscale>
<asrwt>0</asrwt>
<pdfrwt beam="1">  1       21 0.10741796E+00 0.22219606E+03</pdfrwt>
<pdfrwt beam="2">  1       21 0.11196396E-01 0.22219606E+03</pdfrwt>
<totfact> 0.45241342E+04</totfact>
</mgrwt>
</event>
<event>
12      1 +1.4674046e+01 3.44348600e+02 7.54677100e-03 1.06501100e-01
       21 -1    0    0  503  502 +0.0000000000e+00 +0.0000000000e+00 +4.4157038408e+02 4.4157038408e+02 0.0000000000e+00 0.0000e+00 -1.0000e+00
       21 -1    0    0  501  503 -0.0000000000e+00 -0.0000000000e+00 -4.5274416262e+02 4.5274416262e+02 0.0000000000e+00 0.0000e+00 1.0000e+00
        6  2    1    2  501    0 +7.7692628890e+01 -2.8673078010e+02 -2.9111521248e+02 4.5053176306e+02 1.7314767613e+02 0.0000e+00 0.0000e+00
       24  2    3    3    0    0 +8.8495253852e+00 -2.4102488801e+02 -1.7819336765e+02 3.1052521138e+02 8.0633243091e+01 0.0000e+00 0.0000e+00
       -6  2    1    2    0  502 -7.7692628890e+01 +2.8673078010e+02 +2.7994143394e+02 4.4378278364e+02 1.7414151652e+02 0.0000e+00 0.0000e+00
      -24  2    5    5    0    0 +1.9055875546e+01 +1.4314781482e+02 +1.8412891581e+02 2.4584726469e+02 7.5385652745e+01 0.0000e+00 0.0000e+00
        5  1    3    3  501    0 +6.8843103505e+01 -4.5705892086e+01 -1.1292184483e+02 1.4000655168e+02 4.7000000000e+00 0.0000e+00 -1.0000e+00
      -13  1    4    4    0    0 +2.0070323330e+01 -2.4082711857e+02 -1.7631959403e+02 2.9914731848e+02 0.0000000000e+00 0.0000e+00 1.0000e+00
       14  1    4    4    0    0 -1.1220797945e+01 -1.9776944277e-01 -1.8737736138e+00 1.1377892899e+01 0.0000000000e+00 0.0000e+00 -1.0000e+00
       -5  1    5    5    0  502 -9.6748504436e+01 +1.4358296528e+02 +9.5812518134e+01 1.9793551894e+02 4.7000000000e+00 0.0000e+00 1.0000e+00
       13  1    6    6    0    0 -2.5097561399e+01 +8.5962776416e+01 +1.1598579154e+02 1.4653392220e+02 0.0000000000e+00 0.0000e+00 -1.0000e+00
      -14  1    6    6    0    0 +4.4153436945e+01 +5.7185038406e+01 +6.8143124269e+01 9.9313342491e+01 0.0000000000e+00 0.0000e+00 1.0000e+00
<mgrwt>
<rscale>  2 0.34422314E+03</rscale>
<asrwt>0</asrwt>
<pdfrwt beam="1">  1       21 0.67933905E-01 0.34434859E+03</pdfrwt>
<pdfrwt beam="2">  1       21 0.69652948E-01 0.34434859E+03</pdfrwt>
<totfact> 0.33739472E+03</totfact>
</mgrwt>
</event>
<event>
14      3 +1.4674046e+01 2.03491700e+02 7.54677100e-03 1.14887500e-01
       21 -1    0    0  501  502 +0.0000000000e+00 +0.0000000000e+00 +6.2583818477e+02 6.2583818477e+02 0.0000000000e+00 0.0000e+00 1.0000e+00
       21 -1    0    0  505  503 -0.0000000000e+00 -0.0000000000e+00 -1.7925972824e+02 1.7925972824e+02 0.0000000000e+00 0.0000e+00 1.0000e+00
       -6  2    1    2    0  503 -9.6757763978e+01 +5.3392090150e+01 +1.9171435268e+02 2.8214793759e+02 1.7504366736e+02 0.0000e+00 0.0000e+00
      -24  2    3    3    0    0 -2.2744449744e+01 +7.4015473406e+01 +6.2858744183e+01 1.3205079418e+02 8.6548195963e+01 0.0000e+00 0.0000e+00
        6  2    1    2  501    0 +3.0733609963e+01 +1.3400914389e+02 +3.6182832663e+01 2.2423541783e+02 1.7340507433e+02 0.0000e+00 0.0000e+00
       24  2    5    5    0    0 +2.4070831897e+01 +1.4025972512e+01 +5.6552222040e+01 1.0226265018e+02 8.0519332779e+01 0.0000e+00 0.0000e+00
        5  1    5    5  501    0 +6.6627780660e+00 +1.1998317137e+02 -2.0369389378e+01 1.2197276765e+02 4.7000000000e+00 0.0000e+00 -1.0000e+00
      -13  1    6    6    0    0 -2.3261664318e+01 +5.6914525604e+00 -4.7013231438e+00 2.4404919554e+01 0.0000000000e+00 0.0000e+00 1.0000e+00
       14  1    6    6    0    0 +4.7332496215e+01 +8.3345199517e+00 +6.1253545184e+01 7.7857730627e+01 0.0000000000e+00 0.0000e+00 -1.0000e+00
       -5  1    3    3    0  503 -7.4013314234e+01 -2.0623383256e+01 +1.2885560850e+02 1.5009714342e+02 4.7000000000e+00 0.0000e+00 1.0000e+00
       13  1    4    4    0    0 -3.8498105898e+01 +1.0285852950e+01 +5.1997313139e+01 6.5510483912e+01 0.0000000000e+00 0.0000e+00 -1.0000e+00
      -14  1    4    4    0    0 +1.5753656154e+01 +6.3729620456e+01 +1.0861431043e+01 6.6540310264e+01 0.0000000000e+00 0.0000e+00 1.0000e+00
       21  1    1    2  504  502 +4.6044651955e+00 -7.7032124651e+01 +8.4645268808e+01 1.1454244130e+02 0.0000000000e+00 0.0000e+00 1.0000e+00
       21  1    1    2  505  504 +6.1419688819e+01 -1.1036910939e+02 +1.3403600238e+02 1.8417211628e+02 0.0000000000e+00 0.0000e+00 1.0000e+00
<mgrwt>
<rscale>  4 0.20102797E+03</rscale>
<asrwt>0</asrwt>
<pdfrwt beam="1">  1       21 0.96282796E-01 0.20349174E+03</pdfrwt>
<pdfrwt beam="2">  1       21 0.27578420E-01 0.20349174E+03</pdfrwt>
<totfact> 0.11178393E+04</totfact>
</mgrwt>
</event>
<event>
12      1 +1.4674046e+01 1.95259600e+02 7.54677100e-03 1.15473300e-01
       21 -1    0    0  501  502 +0.0000000000e+00 +0.0000000000e+00 +2.0170005602e+02 2.0170005602e+02 0.0000000000e+00 0.0000e+00 1.0000e+00
       21 -1    0    0  502  503 -0.0000000000e+00 -0.0000000000e+00 -1.8655254729e+02 1.8655254729e+02 0.0000000000e+00 0.0000e+00 1.0000e+00
       -6  2    1    2    0  503 +1.3148593581e+01 -7.9316058775e+01 +2.5472430713e+01 1.9272017653e+02 1.7328675374e+02 0.0000e+00 0.0000e+00
      -24  2    3    3    0    0 +3.9338980177e+01 -1.0324169291e+02 -1.5866785183e+01 1.3804483392e+02 8.1229420683e+01 0.0000e+00 0.0000e+00
        6  2    1    2  501    0 -1.3148593581e+01 +7.9316058775e+01 -1.0324921985e+01 1.9553242677e+02 1.7793932453e+02 0.0000e+00 0.0000e+00
       24  2    5    5    0    0 -4.6905510998e+01 +8.4804018991e+01 -5.4688378547e+01 1.3931985292e+02 8.3829315105e+01 0.0000e+00 0.0000e+00
        5  1    5    5  501    0 +3.3756917417e+01 -5.4879602164e+00 +4.4363456562e+01 5.6212573851e+01 4.7000000000e+00 0.0000e+00 -1.0000e+00
      -13  1    6    6    0    0 +9.4263041305e+00 +3.2207918861e+01 -5.2389928246e+01 6.2216636268e+01 0.0000000000e+00 0.0000e+00 1.0000e+00
       14  1    6    6    0    0 -5.6331815128e+01 +5.2596100131e+01 -2.2984503016e+00 7.7103216654e+01 0.0000000000e+00 0.0000e+00 -1.0000e+00
       -5  1    3    3    0  503 -2.6190386596e+01 +2.3925634131e+01 +4.1339215896e+01 5.4675342610e+01 4.7000000000e+00 0.0000e+00 1.0000e+00
       13  1    4    4    0    0 +6.0197696369e+01 -4.7464262913e+01 -1.6839426886e+01 7.8486847305e+01 0.0000000000e+00 0.0000e+00 -1.0000e+00
      -14  1    4    4    0    0 -2.0858716192e+01 -5.5777429993e+01 +9.7264170319e-01 5.9557986615e+01 0.0000000000e+00 0.0000e+00 1.0000e+00
<mgrwt>
<rscale>  2 0.19419337E+03</rscale>
<asrwt>0</asrwt>
<pdfrwt beam="1">  1       21 0.31030778E-01 0.19525964E+03</pdfrwt>
<pdfrwt beam="2">  1       21 0.28700392E-01 0.19525964E+03</pdfrwt>
<totfact> 0.11575293E+05</totfact>
</mgrwt>
</event>
<event>
12      1 +1.4674046e+01 2.19097300e+02 7.54677100e-03 1.13460100e-01
       21 -1    0    0  503  502 +0.0000000000e+00 +0.0000000000e+00 +1.9005680828e+02 1.9005680828e+02 0.0000000000e+00 0.0000e+00 -1.0000e+00
       21 -1    0    0  501  503 -0.0000000000e+00 -0.0000000000e+00 -3.8776178218e+02 3.8776178218e+02 0.0000000000e+00 0.0000e+00 -1.0000e+00
        6  2    1    2  501    0 -4.3043903364e+01 -1.2714861047e+02 -2.6957240934e+02 3.4723553238e+02 1.7286898018e+02 0.0000e+00 0.0000e+00
       24  2    3    3    0    0 +1.9596777569e+01 -7.0456572359e+01 -2.3095319413e+02 2.5422275973e+02 7.7082237933e+01 0.0000e+00 0.0000e+00
       -6  2    1    2    0  502 +4.3043903364e+01 +1.2714861047e+02 +7.1867435439e+01 2.3058305808e+02 1.7315909342e+02 0.0000e+00 0.0000e+00
      -24  2    5    5    0    0 -4.6078874587e+00 +1.4225501743e+02 +7.5289325653e+01 1.8025715985e+02 8.1033564091e+01 0.0000e+00 0.0000e+00
        5  1    3    3  501    0 -6.2640680933e+01 -5.6692038115e+01 -3.8619215212e+01 9.3012772655e+01 4.7000000000e+00 0.0000e+00 -1.0000e+00
      -13  1    4    4    0    0 +3.8592873931e+01 -7.4982998548e+01 -1.6305684070e+02 1.8357394502e+02 0.0000000000e+00 0.0000e+00 1.0000e+00
       14  1    4    4    0    0 -1.8996096363e+01 +4.5264261884e+00 -6.7896353430e+01 7.0648814712e+01 0.0000000000e+00 0.0000e+00 -1.0000e+00
       -5  1    5    5    0  502 +4.7651790823e+01 -1.5106406956e+01 -3.4218902141e+00 5.0325898227e+01 4.7000000000e+00 0.0000e+00 1.0000e+00
       13  1    6    6    0    0 -1.8465950877e+01 +4.4039601255e+01 +6.4829058923e+01 8.0518846870e+01 0.0000000000e+00 0.0000e+00 -1.0000e+00
      -14  1    6    6    0    0 +1.3858063418e+01 +9.8215416174e+01 +1.0460266730e+01 9.9738312980e+01 0.0000000000e+00 0.0000e+00 1.0000e+00
<mgrwt>
<rscale>  2 0.21903995E+03</rscale>
<asrwt>0</asrwt>
<pdfrwt beam="1">  1       21 0.29239509E-01 0.21909728E+03</pdfrwt>
<pdfrwt beam="2">  1       21 0.59655658E-01 0.21909728E+03</pdfrwt>
<totfact> 0.28970404E+04</totfact>
</mgrwt>
</event>
<event>
13      2 +1.4674046e+01 1.97949700e+02 7.54677100e-03 1.15170000e-01
        2 -1    0    0  501    0 -0.0000000000e+00 +0.0000000000e+00 +1.0543327594e+03 1.0543327594e+03 0.0000000000e+00 0.0000e+00 -1.0000e+00
       21 -1    0    0  502  503 +0.0000000000e+00 -0.0000000000e+00 -1.5634948308e+02 1.5634948308e+02 0.0000000000e+00 0.0000e+00 -1.0000e+00
        6  2    1    2  501    0 +9.9723070837e+01 -1.1941077395e+02 +4.2638423844e+02 4.8570662745e+02 1.7292710998e+02 0.0000e+00 0.0000e+00
       24  2    3    3    0    0 +1.3051327103e+02 -1.1949403096e+02 +3.2593082862e+02 3.8053523921e+02 8.5226908245e+01 0.0000e+00 0.0000e+00
       -6  2    1    2    0  503 -3.6416080068e+01 +7.9349996917e+01 -4.9170042769e+01 1.9884533051e+02 1.7175336812e+02 0.0000e+00 0.0000e+00
      -24  2    5    5    0    0 -8.6261359515e+01 +7.7764100367e+01 -3.3297221509e+01 1.4629912792e+02 8.2501226777e+01 0.0000e+00 0.0000e+00
        5  1    3    3  501    0 -3.0790200189e+01 +8.3257009035e-02 +1.0045340982e+02 1.0517138824e+02 4.7000000000e+00 0.0000e+00 -1.0000e+00
      -13  1    4    4    0    0 +5.3122309680e+00 -5.0651890885e+01 +6.0420781296e+01 7.9022178283e+01 0.0000000000e+00 0.0000e+00 1.0000e+00
       14  1    4    4    0    0 +1.2520104006e+02 -6.8842140076e+01 +2.6551004732e+02 3.0151306093e+02 0.0000000000e+00 0.0000e+00 -1.0000e+00
       -5  1    5    5    0  503 +4.9845279447e+01 +1.5858965501e+00 -1.5872821260e+01 5.2546202582e+01 4.7000000000e+00 0.0000e+00 1.0000e+00
       13  1    6    6    0    0 -4.5955257566e+01 +8.3585508967e+01 -2.8095091639e+00 9.5427021063e+01 0.0000000000e+00 0.0000e+00 -1.0000e+00
      -14  1    6    6    0    0 -4.0306101949e+01 -5.8214086001e+00 -3.0487712345e+01 5.0872106861e+01 0.0000000000e+00 0.0000e+00 1.0000e+00
        2  1    1    2  502    0 -6.3306990770e+01 +4.0060777035e+01 +5.2076908067e+02 5.2613028454e+02 0.0000000000e+00 0.0000e+00 -1.0000e+00
<mgrwt>
<rscale>  3 0.19769304E+03</rscale>
<asrwt>0</asrwt>
<pdfrwt beam="2">  1       21 0.24053767E-01 0.19794967E+03</pdfrwt>
<pdfrwt beam="1">  1        2 0.16220504E+00 0.19794967E+03</pdfrwt>
<totfact> 0.50395584E+03</totfact>
</mgrwt>
</event>
<event>
13      2 +1.4674046e+01 2.71086400e+02 7.54677100e-03 1.10065900e-01
       21 -1    0    0  502  503 +0.0000000000e+00 +0.0000000000e+00 +7.4790571953e+02 7.4790571953e+02 0.0000000000e+00 0.0000e+00 1.0000e+00
        1 -1    0    0  501    0 -0.0000000000e+00 -0.0000000000e+00 -1.0178834764e+03 1.0178834764e+03 0.0000000000e+00 0.0000e+00 1.0000e+00
        6  2    1    2  501    0 +1.2297628642e+02 +9.1958865443e+01 -1.3934037445e+02 2.7075689360e+02 1.7410903343e+02 0.0000e+00 0.0000e+00
       24  2    3    3    0    0 +6.7428819604e+01 +9.8111508370e+00 -1.3410738562e+02 1.7134239638e+02 8.2039755754e+01 0.0000e+00 0.0000e+00
       -6  2    1    2    0  503 -4.3969921987e+01 -2.4166564720e+02 -7.7368522355e+02 8.3007767814e+02 1.7350644810e+02 0.0000e+00 0.0000e+00
      -24  2    5    5    0    0 -3.6454598862e+01 -1.8585688455e+02 -3.7811947140e+02 4.3049608153e+02 8.0503554296e+01 0.0000e+00 0.0000e+00
        5  1    3    3  501    0 +5.5547466818e+01 +8.2147714606e+01 -5.2329888249e+00 9.9414497217e+01 4.7000000000e+00 0.0000e+00 -1.0000e+00
      -13  1    4    4    0    0 +3.9272496148e+01 -2.4874341872e+01 -2.3575764625e+01 5.2123684779e+01 0.0000000000e+00 0.0000e+00 1.0000e+00
       14  1    4    4    0    0 +2.8156323456e+01 +3.4685492709e+01 -1.1053162100e+02 1.1921871160e+02 0.0000000000e+00 0.0000e+00 -1.0000e+00
       -5  1    5    5    0  503 -7.5153231244e+00 -5.5808762652e+01 -3.9556575215e+02 3.9958159661e+02 4.7000000000e+00 0.0000e+00 1.0000e+00
       13  1    6    6    0    0 -2.2663947215e+01 -1.6774882073e+01 -1.0719671713e+02 1.1084307527e+02 0.0000000000e+00 0.0000e+00 -1.0000e+00
      -14  1    6    6    0    0 -1.3790651647e+01 -1.6908200248e+02 -2.7092275427e+02 3.1965300627e+02 0.0000000000e+00 0.0000e+00 1.0000e+00
        1  1    1    2  502    0 -7.9006364435e+01 +1.4970678176e+02 +6.4304784118e+02 6.6495462414e+02 0.0000000000e+00 0.0000e+00 1.0000e+00
<mgrwt>
<rscale>  3 0.27108640E+03</rscale>
<asrwt>0</asrwt>
<pdfrwt beam="1">  1       21 0.11506242E+00 0.27108640E+03</pdfrwt>
<pdfrwt beam="2">  1        1 0.15659746E+00 0.27108640E+03</pdfrwt>
<totfact> 0.96119513E+01</totfact>
</mgrwt>
</event>
<event>
13      2 +1.4674046e+01 2.12724900e+02 7.54677100e-03 1.14038000e-01
       21 -1    0    0  503  502 +0.0000000000e+00 +0.0000000000e+00 +2.2684673113e+02 2.2684673113e+02 0.0000000000e+00 0.0000e+00 -1.0000e+00
       21 -1    0    0  504  503 -0.0000000000e+00 -0.0000000000e+00 -3.1784543555e+02 3.1784543555e+02 0.0000000000e+00 0.0000e+00 -1.0000e+00
        6  2    1    2  501    0 +1.0827326122e+02 +6.5904537727e+01 +8.2065820527e+01 2.2917982522e+02 1.7240094606e+02 0.0000e+00 0.0000e+00
       24  2    3    3    0    0 +1.1044894237e+02 +5.4189916545e+01 +1.2019608757e+02 1.8895578760e+02 7.8241129037e+01 0.0000e+00 0.0000e+00
       -6  2    1    2    0  502 -8.1337298394e+01 -4.8661245743e+01 -8.0024590810e+01 2.1712887457e+02 1.7820589241e+02 0.0000e+00 0.0000e+00
      -24  2    5    5    0    0 -1.0585626417e+02 -7.9831061086e+01 -4.0550816384e+01 1.6097724112e+02 8.1797044392e+01 0.0000e+00 0.0000e+00
        5  1    3    3  501    0 -2.1756811511e+00 +1.1714621182e+01 -3.8130267046e+01 4.0224037625e+01 4.7000000000e+00 0.0000e+00 -1.0000e+00
      -13  1    4    4    0    0 +3.0871092734e+00 +3.4156833547e+01 +4.4002126310e+01 5.5788947306e+01 0.0000000000e+00 0.0000e+00 1.0000e+00
       14  1    4    4    0    0 +1.0736183310e+02 +2.0033082998e+01 +7.6193961263e+01 1.3316684029e+02 0.0000000000e+00 0.0000e+00 -1.0000e+00
       -5  1    5    5    0  502 +2.4518965777e+01 +3.1169815343e+01 -3.9473774426e+01 5.6151633446e+01 4.7000000000e+00 0.0000e+00 1.0000e+00
       13  1    6    6    0    0 -1.0507004122e+02 -4.8568463091e+01 -8.2928783450e+00 1.1604904567e+02 0.0000000000e+00 0.0000e+00 -1.0000e+00
      -14  1    6    6    0    0 -7.8622294689e-01 -3.1262597995e+01 -3.2257938039e+01 4.4928195450e+01 0.0000000000e+00 0.0000e+00 1.0000e+00
       21  1    1    2  504  501 -2.6935962828e+01 -1.7243291984e+01 -9.3039934137e+01 9.8383466884e+01 0.0000000000e+00 0.0000e+00 -1.0000e+00
<mgrwt>
<rscale>  3 0.21150477E+03</rscale>
<asrwt>0</asrwt>
<pdfrwt beam="1">  1       21 0.34899497E-01 0.21272493E+03</pdfrwt>
<pdfrwt beam="2">  1       21 0.48899298E-01 0.21272493E+03</pdfrwt>
<totfact> 0.31248816E+04</totfact>
</mgrwt>
</event>
<event>
12      1 +1.4674046e+01 1.85849000e+02 7.54677100e-03 1.16240200e-01
       21 -1    0    0  501  502 +0.0000000000e+00 +0.0000000000e+00 +6.6387217929e+02 6.6387217929e+02 0.0000000000e+00 0.0000e+00 1.0000e+00
       21 -1    0    0  502  503 -0.0000000000e+00 -0.0000000000e+00 -5.1912626736e+01 5.1912626736e+01 0.0000000000e+00 0.0000e+00 1.0000e+00
       -6  2    1    2    0  503 -6.6615301582e+01 -1.8698782736e+01 +2.9364819742e+02 3.4719020426e+02 1.7182703862e+02 0.0000e+00 0.0000e+00
      -24  2    3    3    0    0 -8.0200336995e+01 -4.9752482206e+01 +1.1624752475e+02 1.6651930427e+02 7.2854568451e+01 0.0000e+00 0.0000e+00
        6  2    1    2  501    0 +6.6615301582e+01 +1.8698782736e+01 +3.1831135514e+02 3.6859460177e+02 1.7248947437e+02 0.0000e+00 0.0000e+00
       24  2    5    5    0    0 -2.0205910078e+01 +4.4983050027e+01 +1.8249378943e+02 2.0520155830e+02 7.9824449618e+01 0.0000e+00 0.0000e+00
        5  1    5    5  501    0 +8.6821211659e+01 -2.6284267291e+01 +1.3581756570e+02 1.6339304347e+02 4.7000000000e+00 0.0000e+00 -1.0000e+00
      -13  1    6    6    0    0 -2.9029109736e+01 +2.8205439667e+01 +2.7224001207e+01 4.8778912253e+01 0.0000000000e+00 0.0000e+00 1.0000e+00
       14  1    6    6    0    0 +8.8231996586e+00 +1.6777610361e+01 +1.5526978823e+02 1.5642264605e+02 0.0000000000e+00 0.0000e+00 -1.0000e+00
       -5  1    3    3    0  503 +1.3585035414e+01 +3.1053699470e+01 +1.7740067267e+02 1.8067089998e+02 4.7000000000e+00 0.0000e+00 1.0000e+00
       13  1    4    4    0    0 -3.4814279694e+01 -1.8910526659e+01 +1.8735521215e+00 3.9662983835e+01 0.0000000000e+00 0.0000e+00 -1.0000e+00
      -14  1    4    4    0    0 -4.5386057302e+01 -3.0841955547e+01 +1.1437397263e+02 1.2685632044e+02 0.0000000000e+00 0.0000e+00 1.0000e+00
<mgrwt>
<rscale>  2 0.18569517E+03</rscale>
<asrwt>0</asrwt>
<pdfrwt beam="1">  1       21 0.10213418E+00 0.18584903E+03</pdfrwt>
<pdfrwt beam="2">  1       21 0.79865584E-02 0.18584903E+03</pdfrwt>
<totfact> 0.94225158E+04</totfact>
</mgrwt>
</event>
<event>
12      1 +1.4674046e+01 2.03939600e+02 7.54677100e-03 1.14652900e-01
       21 -1    0    0  503  502 +0.0000000000e+00 +0.0000000000e+00 +1.4527466673e+02 1.4527466673e+02 0.0000000000e+00 0.0000e+00 -1.0000e+00
       21 -1    0    0  501  503 -0.0000000000e+00 -0.0000000000e+00 -4.3626930108e+02 4.3626930108e+02 0.0000000000e+00 0.0000e+00 -1.0000e+00
        6  2    1    2  501    0 -3.4831695619e+01 +1.0113960108e+02 -3.1617805991e+02 3.7605537648e+02 1.7322417464e+02 0.0000e+00 0.0000e+00
       24  2    3    3    0    0 +9.2866829657e+00 +1.1559283239e+01 -6.2894678725e+01 1.0375843221e+02 8.1180121534e+01 0.0000e+00 0.0000e+00
       -6  2    1    2    0  502 +3.4831695619e+01 -1.0113960108e+02 +2.5183425561e+01 2.0548859133e+02 1.7363435812e+02 0.0000e+00 0.0000e+00
      -24  2    5    5    0    0 +5.1924068758e+01 -2.8789109698e+01 +6.7142275040e+01 1.1999369164e+02 7.9783953169e+01 0.0000e+00 0.0000e+00
        5  1    3    3  501    0 -4.4118378584e+01 +8.9580317844e+01 -2.5328338119e+02 2.7229694427e+02 4.7000000000e+00 0.0000e+00 -1.0000e+00
      -13  1    4    4    0    0 -1.2566475103e+01 +2.8002598518e+01 +4.5046578654e+00 3.1021827199e+01 0.0000000000e+00 0.0000e+00 1.0000e+00
       14  1    4    4    0    0 +2.1853158069e+01 -1.6443315279e+01 -6.7399336590e+01 7.2736605006e+01 0.0000000000e+00 0.0000e+00 -1.0000e+00
       -5  1    5    5    0  502 -1.7092373140e+01 -7.2350491385e+01 -4.1958849480e+01 8.5494899689e+01 4.7000000000e+00 0.0000e+00 1.0000e+00
       13  1    6    6    0    0 +5.4494452241e+01 -7.4996855829e+00 +6.1611808978e+00 5.5352061921e+01 0.0000000000e+00 0.0000e+00 -1.0000e+00
      -14  1    6    6    0    0 -2.5703834828e+00 -2.1289424115e+01 +6.0981094143e+01 6.4641629723e+01 0.0000000000e+00 0.0000e+00 1.0000e+00
<mgrwt>
<rscale>  2 0.20385225E+03</rscale>
<asrwt>0</asrwt>
<pdfrwt beam="1">  1       21 0.22349949E-01 0.20393959E+03</pdfrwt>
<pdfrwt beam="2">  1       21 0.67118354E-01 0.20393959E+03</pdfrwt>
<totfact> 0.37850808E+04</totfact>
</mgrwt>
</event>
<event>
14      3 +1.4674046e+01 2.40108400e+02 7.54677100e-03 1.12200500e-01
       21 -1    0    0  505  502 +0.0000000000e+00 +0.0000000000e+00 +2.2008430843e+03 2.2008430843e+03 0.0000000000e+00 0.0000e+00 1.0000e+00
       21 -1    0    0  501  503 -0.0000000000e+00 -0.0000000000e+00 -6.5961088851e+02 6.5961088851e+02 0.0000000000e+00 0.0000e+00 -1.0000e+00
        6  2    1    2  501    0 +5.1510207029e+00 +1.4644820808e+02 +2.0480367383e+02 3.0558454722e+02 1.7310043334e+02 0.0000e+00 0.0000e+00
       24  2    3    3    0    0 -2.0813029004e+01 +5.5026572742e+01 +1.8243773867e+02 2.0783807751e+02 8.0324542253e+01 0.0000e+00 0.0000e+00
       -6  2    1    2    0  502 +1.6457830370e+02 +2.5835297304e+01 -5.7755940547e+02 6.2538774996e+02 1.7257314485e+02 0.0000e+00 0.0000e+00
      -24  2    5    5    0    0 +1.0240005055e+01 +1.9981530349e+01 -1.5649090876e+02 1.7686200273e+02 7.9288361215e+01 0.0000e+00 0.0000e+00
        5  1    3    3  501    0 +2.5964049707e+01 +9.1421635338e+01 +2.2365935157e+01 9.7746469709e+01 4.7000000000e+00 0.0000e+00 -1.0000e+00
      -13  1    4    4    0    0 +7.0903832073e+00 +4.0425879502e+01 +2.6735214381e+01 4.8982618913e+01 0.0000000000e+00 0.0000e+00 1.0000e+00
       14  1    4    4    0    0 -2.7903412212e+01 +1.4600693239e+01 +1.5570252429e+02 1.5885545860e+02 0.0000000000e+00 0.0000e+00 -1.0000e+00
       -5  1    5    5    0  502 +1.5433829864e+02 +5.8537669551e+00 -4.2106849671e+02 4.4852574724e+02 4.7000000000e+00 0.0000e+00 1.0000e+00
       13  1    6    6    0    0 +1.1298722045e+01 -3.0181976460e+01 -6.0366152672e+01 6.8430148409e+01 0.0000000000e+00 0.0000e+00 -1.0000e+00
      -14  1    6    6    0    0 -1.0587169898e+00 +5.0163506809e+01 -9.6124756090e+01 1.0843185432e+02 0.0000000000e+00 0.0000e+00 1.0000e+00
       21  1    1    2  504  503 -6.7904575054e+01 -9.0256367212e+01 +9.3695404077e+02 9.4373731390e+02 0.0000000000e+00 0.0000e+00 1.0000e+00
       21  1    1    2  505  504 -1.0182474935e+02 -8.2027138172e+01 +9.7703388669e+02 9.8574436174e+02 0.0000000000e+00 0.0000e+00 1.0000e+00
<mgrwt>
<rscale>  4 0.23670935E+03</rscale>
<asrwt>0</asrwt>
<pdfrwt beam="1">  1       21 0.33859124E+00 0.24010844E+03</pdfrwt>
<pdfrwt beam="2">  1       21 0.10147860E+00 0.24010844E+03</pdfrwt>
<totfact> 0.14866589E+01</totfact>
</mgrwt>
</event>
<event>
12      1 +1.4674046e+01 1.98346300e+02 7.54677100e-03 1.15120100e-01
       21 -1    0    0  501  502 +0.0000000000e+00 +0.0000000000e+00 +1.9461518118e+02 1.9461518118e+02 0.0000000000e+00 0.0000e+00 -1.0000e+00
       21 -1    0    0  502  503 -0.0000000000e+00 -0.0000000000e+00 -3.0136550984e+02 3.0136550984e+02 0.0000000000e+00 0.0000e+00 -1.0000e+00
       -6  2    1    2    0  503 -4.4575437326e+01 -8.5322344170e+01 -1.9589622552e+02 2.7877695599e+02 1.7341968743e+02 0.0000e+00 0.0000e+00
      -24  2    3    3    0    0 -1.7422831704e+01 -1.2373500868e+02 -1.6580444595e+02 2.2273766634e+02 8.0666264768e+01 0.0000e+00 0.0000e+00
        6  2    1    2  501    0 +4.4575437326e+01 +8.5322344170e+01 +8.9145896867e+01 2.1720373503e+02 1.7309996983e+02 0.0000e+00 0.0000e+00
       24  2    5    5    0    0 -1.0485010220e+01 +1.0668207118e+02 +8.4126085838e+01 1.5774636102e+02 7.9471481328e+01 0.0000e+00 0.0000e+00
        5  1    5    5  501    0 +5.5060447546e+01 -2.1359727012e+01 +5.0198110288e+00 5.9457374015e+01 4.7000000000e+00 0.0000e+00 -1.0000e+00
      -13  1    6    6    0    0 +8.8704935382e+00 -1.0632308547e+01 +1.4077044100e+01 1.9745754259e+01 0.0000000000e+00 0.0000e+00 1.0000e+00
       14  1    6    6    0    0 -1.9355503759e+01 +1.1731437973e+02 +7.0049041738e+01 1.3800060676e+02 0.0000000000e+00 0.0000e+00 -1.0000e+00
       -5  1    3    3    0  503 -2.7152605621e+01 +3.8412664507e+01 -3.0091779566e+01 5.6039289646e+01 4.7000000000e+00 0.0000e+00 1.0000e+00
       13  1    4    4    0    0 +1.2336365641e+01 -8.4110550358e+01 -5.4714984419e+01 1.0109648915e+02 0.0000000000e+00 0.0000e+00 -1.0000e+00
      -14  1    4    4    0    0 -2.9759197345e+01 -3.9624458319e+01 -1.1108946154e+02 1.2164117719e+02 0.0000000000e+00 0.0000e+00 1.0000e+00
<mgrwt>
<rscale>  2 0.19827641E+03</rscale>
<asrwt>0</asrwt>
<pdfrwt beam="1">  1       21 0.29940797E-01 0.19834631E+03</pdfrwt>
<pdfrwt beam="2">  1       21 0.46363924E-01 0.19834631E+03</pdfrwt>
<totfact> 0.47535988E+04</totfact>
</mgrwt>
</event>
<event>
12      1 +1.4674046e+01 2.46076700e+02 7.54677100e-03 1.11589400e-01
       21 -1    0    0  501  502 +0.0000000000e+00 +0.0000000000e+00 +1.4372419120e+02 1.4372419120e+02 0.0000000000e+00 0.0000e+00 -1.0000e+00
       21 -1    0    0  502  503 -0.0000000000e+00 -0.0000000000e+00 -5.8789077684e+02 5.8789077684e+02 0.0000000000e+00 0.0000e+00 1.0000e+00
       -6  2    1    2    0  503 -2.2059504866e+01 +1.7329405565e+02 -4.1715227160e+02 4.8405986070e+02 1.7257021633e+02 0.0000e+00 0.0000e+00
      -24  2    3    3    0    0 -7.7444855392e+01 +1.2523170166e+02 -3.3241657281e+02 3.7190035119e+02 7.8284152999e+01 0.0000e+00 0.0000e+00
        6  2    1    2  501    0 +2.2059504866e+01 -1.7329405565e+02 -2.7014314046e+01 2.4755510735e+02 1.7330985700e+02 0.0000e+00 0.0000e+00
       24  2    5    5    0    0 +3.3657884583e+00 -8.7389462221e+01 -8.2203658053e+01 1.4364645565e+02 7.8921582507e+01 0.0000e+00 0.0000e+00
        5  1    5    5  501    0 +1.8693716408e+01 -8.5904593428e+01 +5.5189344007e+01 1.0390865170e+02 4.7000000000e+00 0.0000e+00 -1.0000e+00
      -13  1    6    6    0    0 +3.8471834415e+01 -6.1897280554e+01 -6.2449857015e+01 9.5975726225e+01 0.0000000000e+00 0.0000e+00 1.0000e+00
       14  1    6    6    0    0 -3.5106045956e+01 -2.5492181667e+01 -1.9753801038e+01 4.7670729429e+01 0.0000000000e+00 0.0000e+00 -1.0000e+00
       -5  1    3    3    0  503 +5.5385350526e+01 +4.8062353992e+01 -8.4735698786e+01 1.1215950951e+02 4.7000000000e+00 0.0000e+00 1.0000e+00
       13  1    4    4    0    0 -6.9571705284e+01 +3.8591376828e+01 -1.4959441388e+02 1.6943436843e+02 0.0000000000e+00 0.0000e+00 -1.0000e+00
      -14  1    4    4    0    0 -7.8731501081e+00 +8.6640324829e+01 -1.8282215893e+02 2.0246598276e+02 0.0000000000e+00 0.0000e+00 1.0000e+00
<mgrwt>
<rscale>  2 0.24594654E+03</rscale>
<asrwt>0</asrwt>
<pdfrwt beam="1">  1       21 0.22111414E-01 0.24607673E+03</pdfrwt>
<pdfrwt beam="2">  1       21 0.90444737E-01 0.24607673E+03</pdfrwt>
<totfact> 0.19267038E+04</totfact>
</mgrwt>
</event>
<event>
12      1 +1.4674046e+01 2.51936900e+02 7.54677100e-03 1.11208700e-01
       -1 -1    0    0    0  501 -0.0000000000e+00 +0.0000000000e+00 +9.9450282547e+01 9.9450282547e+01 0.0000000000e+00 0.0000e+00 1.0000e+00
        1 -1    0    0  502    0 +0.0000000000e+00 -0.0000000000e+00 -6.3843087844e+02 6.3843087844e+02 0.0000000000e+00 0.0000e+00 -1.0000e+00
        6  2    1    2  502    0 +1.5725601686e+02 -9.5398038357e+01 -2.6292225129e+02 3.6412299660e+02 1.7212555263e+02 0.0000e+00 0.0000e+00
       24  2    3    3    0    0 +1.6401038081e+02 -4.5192313349e+01 -2.4743696256e+02 3.1094292117e+02 8.0738464087e+01 0.0000e+00 0.0000e+00
       -6  2    1    2    0  501 -1.5725601686e+02 +9.5398038357e+01 -2.7605834460e+02 3.7375816438e+02 1.7221125185e+02 0.0000e+00 0.0000e+00
      -24  2    5    5    0    0 -1.4316946969e+02 +1.1550588866e+02 -1.6426857216e+02 2.5920774021e+02 7.9783340507e+01 0.0000e+00 0.0000e+00
        5  1    3    3  502    0 -6.7543639580e+00 -5.0205725008e+01 -1.5485288738e+01 5.3180075436e+01 4.7000000000e+00 0.0000e+00 -1.0000e+00
      -13  1    4    4    0    0 +6.2437639837e+01 +2.0662924069e+01 -6.9035817645e+01 9.5348620428e+01 0.0000000000e+00 0.0000e+00 1.0000e+00
       14  1    4    4    0    0 +1.0157274098e+02 -6.5855237418e+01 -1.7840114491e+02 2.1559430074e+02 0.0000000000e+00 0.0000e+00 -1.0000e+00
       -5  1    5    5    0  501 -1.4086547167e+01 -2.0107850305e+01 -1.1178977244e+02 1.1455042417e+02 4.7000000000e+00 0.0000e+00 1.0000e+00
       13  1    6    6    0    0 -9.1536157092e+01 +5.8556895039e+01 -1.4270953687e+02 1.7937053807e+02 0.0000000000e+00 0.0000e+00 -1.0000e+00
      -14  1    6    6    0    0 -5.1633312597e+01 +5.6948993623e+01 -2.1559035281e+01 7.9837202147e+01 0.0000000000e+00 0.0000e+00 1.0000e+00
<mgrwt>
<rscale>  2 0.25193690E+03</rscale>
<asrwt>0</asrwt>
<pdfrwt beam="2">  1        1 0.98220133E-01 0.25193690E+03</pdfrwt>
<pdfrwt beam="1">  1       -1 0.15300044E-01 0.25193690E+03</pdfrwt>
<totfact> 0.10048322E+03</totfact>
</mgrwt>
</event>
<event>
12      1 +1.4674046e+01 3.14194500e+02 7.54677100e-03 1.07835300e-01
       -2 -1    0    0    0  501 -0.0000000000e+00 +0.0000000000e+00 +1.2665991612e+02 1.2665991612e+02 0.0000000000e+00 0.0000e+00 1.0000e+00
        2 -1    0    0  502    0 +0.0000000000e+00 -0.0000000000e+00 -1.4357457816e+03 1.4357457816e+03 0.0000000000e+00 0.0000e+00 -1.0000e+00
        6  2    1    2  502    0 -2.0633284377e+02 -1.6551079706e+02 -1.1858487913e+03 1.2274854364e+03 1.7468850667e+02 0.0000e+00 0.0000e+00
       24  2    3    3    0    0 -7.5322064939e+01 -1.4668675111e+02 -6.7928073094e+02 7.0389068980e+02 8.2760953045e+01 0.0000e+00 0.0000e+00
       -6  2    1    2    0  501 +2.0633284377e+02 +1.6551079706e+02 -1.2323707421e+02 3.3492026135e+02 1.6436891021e+02 0.0000e+00 0.0000e+00
      -24  2    5    5    0    0 +1.9942354512e+02 +1.8643037701e+02 -9.8388537378e+01 3.0138062784e+02 8.1387607963e+01 0.0000e+00 0.0000e+00
        5  1    3    3  502    0 -1.3101077883e+02 -1.8824045942e+01 -5.0656806035e+02 5.2359474658e+02 4.7000000000e+00 0.0000e+00 -1.0000e+00
      -13  1    4    4    0    0 +1.2490048078e+01 -7.6866726052e+00 -2.2607948188e+01 2.6948201387e+01 0.0000000000e+00 0.0000e+00 1.0000e+00
       14  1    4    4    0    0 -8.7812113018e+01 -1.3900007851e+02 -6.5667278275e+02 6.7694248842e+02 0.0000000000e+00 0.0000e+00 -1.0000e+00
       -5  1    5    5    0  501 +6.9092986442e+00 -2.0919579955e+01 -2.4848536833e+01 3.3539633510e+01 4.7000000000e+00 0.0000e+00 1.0000e+00
       13  1    6    6    0    0 +8.4374816019e+01 +3.3366376353e+01 -5.1157614213e+01 1.0416105866e+02 0.0000000000e+00 0.0000e+00 -1.0000e+00
      -14  1    6    6    0    0 +1.1504872910e+02 +1.5306400066e+02 -4.7230923165e+01 1.9721956918e+02 0.0000000000e+00 0.0000e+00 1.0000e+00
<mgrwt>
<rscale>  2 0.31419448E+03</rscale>
<asrwt>0</asrwt>
<pdfrwt beam="2">  1        2 0.22088397E+00 0.31419448E+03</pdfrwt>
<pdfrwt beam="1">  1       -2 0.19486141E-01 0.31419448E+03</pdfrwt>
<totfact> 0.32491130E+02</totfact>
</mgrwt>
</event>
<event>
14      3 +1.4674046e+01 1.75703800e+02 7.54677100e-03 1.17246200e-01
       21 -1    0    0  505  502 +0.0000000000e+00 +0.0000000000e+00 +8.8823775966e+01 8.8823775966e+01 0.0000000000e+00 0.0000e+00 -1.0000e+00
       21 -1    0    0  502  503 -0.0000000000e+00 -0.0000000000e+00 -8.6900747816e+02 8.6900747816e+02 0.0000000000e+00 0.0000e+00 -1.0000e+00
        6  2    1    2  501    0 +3.9794572964e+01 -5.9901835900e+01 -2.1744966035e+02 2.8758149569e+02 1.7391642792e+02 0.0000e+00 0.0000e+00
       24  2    3    3    0    0 +8.6484369480e+01 -6.8209082349e+01 -1.3176933843e+02 1.8953989735e+02 8.0188459628e+01 0.0000e+00 0.0000e+00
       -6  2    1    2    0  503 +1.1510494422e+01 +1.2082456203e+01 -5.6983574894e+02 5.9551058152e+02 1.7216734505e+02 0.0000e+00 0.0000e+00
      -24  2    5    5    0    0 -1.8600898178e+01 -1.7029298707e+01 -1.4129792692e+02 1.6490525742e+02 8.1195131300e+01 0.0000e+00 0.0000e+00
        5  1    3    3  501    0 -4.6689796516e+01 +8.3072464485e+00 -8.5680321919e+01 9.8041598347e+01 4.7000000000e+00 0.0000e+00 -1.0000e+00
      -13  1    4    4    0    0 +4.9251402162e+01 -1.2906776620e+01 -1.0686136619e+02 1.1837076109e+02 0.0000000000e+00 0.0000e+00 1.0000e+00
       14  1    4    4    0    0 +3.7232967318e+01 -5.5302305729e+01 -2.4907972237e+01 7.1169136254e+01 0.0000000000e+00 0.0000e+00 -1.0000e+00
       -5  1    5    5    0  503 +3.0111392600e+01 +2.9111754909e+01 -4.2853782202e+02 4.3060532410e+02 4.7000000000e+00 0.0000e+00 1.0000e+00
       13  1    6    6    0    0 +3.5555363482e+00 -2.8533445071e+01 -1.3648436904e+02 1.3948040120e+02 0.0000000000e+00 0.0000e+00 -1.0000e+00
      -14  1    6    6    0    0 -2.2156434526e+01 +1.1504146365e+01 -4.8135578767e+00 2.5424856222e+01 0.0000000000e+00 0.0000e+00 1.0000e+00
       21  1    1    2  504  501 -3.3298025147e+01 +1.4192862813e+01 +4.9575693573e+00 3.6534549777e+01 0.0000000000e+00 0.0000e+00 -1.0000e+00
       21  1    1    2  505  504 -1.8007042239e+01 +3.3626516884e+01 +2.1441377326e+00 3.8204627136e+01 0.0000000000e+00 0.0000e+00 -1.0000e+00
<mgrwt>
<rscale>  4 0.17526938E+03</rscale>
<asrwt>0</asrwt>
<pdfrwt beam="1">  1       21 0.13665196E-01 0.17570377E+03</pdfrwt>
<pdfrwt beam="2">  1       21 0.13369347E+00 0.17570377E+03</pdfrwt>
<totfact> 0.18918715E+04</totfact>
</mgrwt>
</event>
<event>
13      2 +1.4674046e+01 2.45598700e+02 7.54677100e-03 1.11673100e-01
       21 -1    0    0  501  502 +0.0000000000e+00 +0.0000000000e+00 +4.8984141564e+02 4.8984141564e+02 0.0000000000e+00 0.0000e+00 -1.0000e+00
       21 -1    0    0  504  503 -0.0000000000e+00 -0.0000000000e+00 -1.5415906226e+02 1.5415906226e+02 0.0000000000e+00 0.0000e+00 -1.0000e+00
       -6  2    1    2    0  503 -3.4708385760e+01 -1.4878097231e+02 +1.3300954432e+02 2.6990892844e+02 1.7837836474e+02 0.0000e+00 0.0000e+00
      -24  2    3    3    0    0 -4.9130380725e+01 -2.1462444816e+01 +2.0077018541e+01 9.9046859037e+01 8.0825508126e+01 0.0000e+00 0.0000e+00
        6  2    1    2  501    0 +9.8418483240e+00 +1.8598323968e+02 +1.2250028605e+02 2.8227658975e+02 1.7316791163e+02 0.0000e+00 0.0000e+00
       24  2    5    5    0    0 +3.4418324910e+01 +2.5778305106e+01 +5.2415519658e+01 1.0563121408e+02 8.1002620848e+01 0.0000e+00 0.0000e+00
        5  1    5    5  501    0 -2.4576476586e+01 +1.6020493458e+02 +7.0084766391e+01 1.7664537567e+02 4.7000000000e+00 0.0000e+00 -1.0000e+00
      -13  1    6    6    0    0 +2.8049151874e+01 -9.2284769450e+00 -1.2134239394e+01 3.1924277177e+01 0.0000000000e+00 0.0000e+00 1.0000e+00
       14  1    6    6    0    0 +6.3691730357e+00 +3.5006782051e+01 +6.4549759052e+01 7.3706936908e+01 0.0000000000e+00 0.0000e+00 -1.0000e+00
       -5  1    3    3    0  503 +1.4421994965e+01 -1.2731852749e+02 +1.1293252578e+02 1.7086206940e+02 4.7000000000e+00 0.0000e+00 1.0000e+00
       13  1    4    4    0    0 -3.7690420348e+00 -2.9761364185e+01 +3.8998276217e+01 4.9201727855e+01 0.0000000000e+00 0.0000e+00 -1.0000e+00
      -14  1    4    4    0    0 -4.5361338690e+01 +8.2989193690e+00 -1.8921257676e+01 4.9845131182e+01 0.0000000000e+00 0.0000e+00 1.0000e+00
       21  1    1    2  504  502 +2.4866537436e+01 -3.7202267373e+01 +8.0172523005e+01 9.1814959711e+01 0.0000000000e+00 0.0000e+00 -1.0000e+00
<mgrwt>
<rscale>  3 0.24465384E+03</rscale>
<asrwt>0</asrwt>
<pdfrwt beam="1">  1       21 0.75360217E-01 0.24559874E+03</pdfrwt>
<pdfrwt beam="2">  1       21 0.23716779E-01 0.24559874E+03</pdfrwt>
<totfact> 0.25612350E+04</totfact>
</mgrwt>
</event>
<event>
12      1 +1.4674046e+01 2.43580900e+02 7.54677100e-03 1.11774700e-01
       21 -1    0    0  501  502 +0.0000000000e+00 +0.0000000000e+00 +5.5507958380e+02 5.5507958380e+02 0.0000000000e+00 0.0000e+00 -1.0000e+00
       21 -1    0    0  502  503 -0.0000000000e+00 -0.0000000000e+00 -1.2906530440e+02 1.2906530440e+02 0.0000000000e+00 0.0000e+00 1.0000e+00
       -6  2    1    2    0  503 -2.6506862229e+01 -1.6665491400e+02 +3.5818153105e+02 4.3315777878e+02 1.7565642042e+02 0.0000e+00 0.0000e+00
      -24  2    3    3    0    0 +2.1466575449e+01 -1.7154864290e+01 +1.2214518616e+02 1.4963183342e+02 8.1945932431e+01 0.0000e+00 0.0000e+00
        6  2    1    2  501    0 +2.6506862229e+01 +1.6665491400e+02 +6.7832748360e+01 2.5098710942e+02 1.7296465893e+02 0.0000e+00 0.0000e+00
       24  2    5    5    0    0 +3.2724379694e-01 +1.2055146766e+02 +1.1154286856e+02 1.8211356738e+02 7.8681487343e+01 0.0000e+00 0.0000e+00
        5  1    5    5  501    0 +2.6179618432e+01 +4.6103446332e+01 -4.3710120204e+01 6.8873542041e+01 4.7000000000e+00 0.0000e+00 -1.0000e+00
      -13  1    6    6    0    0 -2.6885927734e+01 +9.2163050345e+01 +4.7873721655e+01 1.0727895499e+02 0.0000000000e+00 0.0000e+00 1.0000e+00
       14  1    6    6    0    0 +2.7213171531e+01 +2.8388417319e+01 +6.3669146909e+01 7.4834612384e+01 0.0000000000e+00 0.0000e+00 -1.0000e+00
       -5  1    3    3    0  503 -4.7973437678e+01 -1.4950004971e+02 +2.3603634489e+02 2.8352594536e+02 4.7000000000e+00 0.0000e+00 1.0000e+00
       13  1    4    4    0    0 -1.3573559894e+01 -1.6151648614e+01 +1.1079463378e+02 1.1278549621e+02 0.0000000000e+00 0.0000e+00 -1.0000e+00
      -14  1    4    4    0    0 +3.5040135343e+01 -1.0032156760e+00 +1.1350552375e+01 3.6846337210e+01 0.0000000000e+00 0.0000e+00 1.0000e+00
<mgrwt>
<rscale>  2 0.24309596E+03</rscale>
<asrwt>0</asrwt>
<pdfrwt beam="1">  1       21 0.85396858E-01 0.24358089E+03</pdfrwt>
<pdfrwt beam="2">  1       21 0.19856201E-01 0.24358089E+03</pdfrwt>
<totfact> 0.26997907E+04</totfact>
</mgrwt>
</event>
<event>
13      2 +1.4674046e+01 1.85417500e+02 7.54677100e-03 1.16354000e-01
       21 -1    0    0  504  502 +0.0000000000e+00 +0.0000000000e+00 +5.9789659429e+01 5.9789659429e+01 0.0000000000e+00 0.0000e+00 1.0000e+00
       21 -1    0    0  501  503 -0.0000000000e+00 -0.0000000000e+00 -1.0339741257e+03 1.0339741257e+03 0.0000000000e+00 0.0000e+00 1.0000e+00
        6  2    1    2  501    0 +3.5155921408e+01 -9.9760657315e+01 -3.3121280320e+02 3.8840049501e+02 1.7310371448e+02 0.0000e+00 0.0000e+00
       24  2    3    3    0    0 +6.3809042800e+01 -3.0952247012e+01 -1.0417035625e+02 1.4939011572e+02 8.0226604158e+01 0.0000e+00 0.0000e+00
       -6  2    1    2    0  502 +4.6919240310e+01 +4.4183445529e+01 -4.9698286902e+02 5.2890398424e+02 1.6909719241e+02 0.0000e+00 0.0000e+00
      -24  2    5    5    0    0 +7.8769173610e+01 +6.1130754285e+01 -2.7129757817e+02 3.0030483719e+02 8.1480473070e+01 0.0000e+00 0.0000e+00
        5  1    3    3  501    0 -2.8653121392e+01 -6.8808410303e+01 -2.2704244695e+02 2.3901037930e+02 4.7000000000e+00 0.0000e+00 -1.0000e+00
      -13  1    4    4    0    0 -1.3011360289e+01 -2.2273817031e+00 -4.8502914333e+01 5.0267180392e+01 0.0000000000e+00 0.0000e+00 1.0000e+00
       14  1    4    4    0    0 +7.6820403089e+01 -2.8724865309e+01 -5.5667441916e+01 9.9122935324e+01 0.0000000000e+00 0.0000e+00 -1.0000e+00
       -5  1    5    5    0  502 -3.1849933300e+01 -1.6947308756e+01 -2.2568529085e+02 2.2859914705e+02 4.7000000000e+00 0.0000e+00 1.0000e+00
       13  1    6    6    0    0 -2.5650486025e+00 -1.5962019761e+01 -2.5927146994e+01 3.0554582315e+01 0.0000000000e+00 0.0000e+00 -1.0000e+00
      -14  1    6    6    0    0 +8.1334222212e+01 +7.7092774046e+01 -2.4537043117e+02 2.6975025488e+02 0.0000000000e+00 0.0000e+00 1.0000e+00
       21  1    1    2  504  503 -8.2075161718e+01 +5.5577211786e+01 -1.4598879407e+02 1.7645930589e+02 0.0000000000e+00 0.0000e+00 1.0000e+00
<mgrwt>
<rscale>  3 0.18447664E+03</rscale>
<asrwt>0</asrwt>
<pdfrwt beam="1">  1       21 0.91984096E-02 0.18541747E+03</pdfrwt>
<pdfrwt beam="2">  1       21 0.15907294E+00 0.18541747E+03</pdfrwt>
<totfact> 0.24151722E+04</totfact>
</mgrwt>
</event>
<event>
12      1 +1.4674046e+01 2.55166000e+02 7.54677100e-03 1.11033600e-01
       21 -1    0    0  501  502 +0.0000000000e+00 +0.0000000000e+00 +4.6559127359e+02 4.6559127359e+02 0.0000000000e+00 0.0000e+00 1.0000e+00
       21 -1    0    0  502  503 -0.0000000000e+00 -0.0000000000e+00 -2.9710173145e+02 2.9710173145e+02 0.0000000000e+00 0.0000e+00 -1.0000e+00
       -6  2    1    2    0  503 -6.5051273197e+00 +1.8772369503e+02 -1.9386137455e+02 3.2045583334e+02 1.7270554774e+02 0.0000e+00 0.0000e+00
      -24  2    3    3    0    0 +4.1388060212e+01 +1.6171054936e+02 -9.7034523001e+01 2.0924445649e+02 8.0649058364e+01 0.0000e+00 0.0000e+00
        6  2    1    2  501    0 +6.5051273197e+00 -1.8772369503e+02 +3.6235091669e+02 4.4223717170e+02 1.7027338856e+02 0.0000e+00 0.0000e+00
       24  2    5    5    0    0 -5.4749702661e+01 -1.0681295392e+02 +2.6962738132e+02 3.0469282891e+02 7.5711677859e+01 0.0000e+00 0.0000e+00
        5  1    5    5  501    0 +6.1254829981e+01 -8.0910741108e+01 +9.2723535370e+01 1.3754434279e+02 4.7000000000e+00 0.0000e+00 -1.0000e+00
      -13  1    6    6    0    0 -1.7430073098e+01 +4.1634111921e+00 +7.8782202262e+01 8.0794658451e+01 0.0000000000e+00 0.0000e+00 1.0000e+00
       14  1    6    6    0    0 -3.7319629563e+01 -1.1097636512e+02 +1.9084517906e+02 2.2389817046e+02 0.0000000000e+00 0.0000e+00 -1.0000e+00
       -5  1    3    3    0  503 -4.7893187532e+01 +2.6013145669e+01 -9.6826851550e+01 1.1121137685e+02 4.7000000000e+00 0.0000e+00 1.0000e+00
       13  1    4    4    0    0 +3.9214780738e+01 +1.2814840553e+02 -1.0982026919e+02 1.7326368458e+02 0.0000000000e+00 0.0000e+00 -1.0000e+00
      -14  1    4    4    0    0 +2.1732794743e+00 +3.3562143831e+01 +1.2785746184e+01 3.5980771917e+01 0.0000000000e+00 0.0000e+00 1.0000e+00
<mgrwt>
<rscale>  2 0.25475509E+03</rscale>
<asrwt>0</asrwt>
<pdfrwt beam="1">  1       21 0.71629427E-01 0.25516604E+03</pdfrwt>
<pdfrwt beam="2">  1       21 0.45707959E-01 0.25516604E+03</pdfrwt>
<totfact> 0.77617970E+03</totfact>
</mgrwt>
</event>
<event>
14      3 +1.4674046e+01 4.38976700e+02 7.54677100e-03 1.03106100e-01
       21 -1    0    0  502  503 +0.0000000000e+00 +0.0000000000e+00 +1.4672808218e+02 1.4672808218e+02 0.0000000000e+00 0.0000e+00 -1.0000e+00
        1 -1    0    0  504    0 -0.0000000000e+00 -0.0000000000e+00 -3.6373552208e+03 3.6373552208e+03 0.0000000000e+00 0.0000e+00 1.0000e+00
        6  2    1    2  501    0 -2.6893140128e+02 -1.4729138545e+02 -9.2073825224e+02 9.8552520539e+02 1.7170367063e+02 0.0000e+00 0.0000e+00
       24  2    3    3    0    0 -9.0781407958e+01 -4.6070309469e+00 -2.8585259225e+02 3.1084147475e+02 8.1536673724e+01 0.0000e+00 0.0000e+00
       -6  2    1    2    0  503 +4.9800586221e+02 +1.8900780776e+02 -2.0292674701e+03 2.1049381907e+03 1.7060050179e+02 0.0000e+00 0.0000e+00
      -24  2    5    5    0    0 +3.4573178857e+02 +1.8740282911e+02 -1.3279339973e+03 1.3872469622e+03 7.9969636735e+01 0.0000e+00 0.0000e+00
        5  1    3    3  501    0 -1.7814999332e+02 -1.4268435450e+02 -6.3488565999e+02 6.7468373064e+02 4.7000000000e+00 0.0000e+00 -1.0000e+00
      -13  1    4    4    0    0 -7.8594627209e+01 +1.8776252058e+01 -1.3218170613e+02 1.5492471237e+02 0.0000000000e+00 0.0000e+00 1.0000e+00
       14  1    4    4    0    0 -1.2186780749e+01 -2.3383283005e+01 -1.5367088612e+02 1.5591676238e+02 0.0000000000e+00 0.0000e+00 -1.0000e+00
       -5  1    5    5    0  503 +1.5227407364e+02 +1.6049786484e+00 -7.0133347281e+02 7.1769122855e+02 4.7000000000e+00 0.0000e+00 1.0000e+00
       13  1    6    6    0    0 +2.7043557600e+02 +1.3571079454e+02 -1.1197324154e+03 1.1598937463e+03 0.0000000000e+00 0.0000e+00 -1.0000e+00
      -14  1    6    6    0    0 +7.5296212572e+01 +5.1692034572e+01 -2.0820158193e+02 2.2735321591e+02 0.0000000000e+00 0.0000e+00 1.0000e+00
       21  1    1    2  504  501 -1.4051065039e+02 +3.9495515484e+01 -5.5382470075e+02 5.7273461374e+02 0.0000000000e+00 0.0000e+00 -1.0000e+00
        1  1    1    2  502    0 -8.8563810551e+01 -8.1211937795e+01 +1.3203284485e+01 1.2088529315e+02 0.0000000000e+00 0.0000e+00 1.0000e+00
<mgrwt>
<rscale>  4 0.43897674E+03</rscale>
<asrwt>0</asrwt>
<pdfrwt beam="1">  1       21 0.22573552E-01 0.43897674E+03</pdfrwt>
<pdfrwt beam="2">  1        1 0.55959309E+00 0.43897674E+03</pdfrwt>
<totfact> 0.44865441E+01</totfact>
</mgrwt>
</event>
<event>
12      1 +1.4674046e+01 1.86498600e+02 7.54677100e-03 1.16179600e-01
       21 -1    0    0  503  502 +0.0000000000e+00 +0.0000000000e+00 +9.8627608662e+01 9.8627608662e+01 0.0000000000e+00 0.0000e+00 1.0000e+00
       21 -1    0    0  501  503 -0.0000000000e+00 -0.0000000000e+00 -9.2855095421e+02 9.2855095421e+02 0.0000000000e+00 0.0000e+00 1.0000e+00
        6  2    1    2  501    0 +6.2526502451e+01 +2.6701310003e+01 -8.2007554031e+02 8.4101463483e+02 1.7366404555e+02 0.0000e+00 0.0000e+00
       24  2    3    3    0    0 +1.6224371049e+01 +5.0174655331e+01 -2.3812857249e+02 2.5673794637e+02 8.0177489485e+01 0.0000e+00 0.0000e+00
       -6  2    1    2    0  502 -6.2526502451e+01 -2.6701310003e+01 -9.8478052353e+00 1.8616392804e+02 1.7302458025e+02 0.0000e+00 0.0000e+00
      -24  2    5    5    0    0 +1.0988123359e+01 -1.2223449208e+01 -5.5034400440e+01 9.8540146752e+01 8.0070117551e+01 0.0000e+00 0.0000e+00
        5  1    3    3  501    0 +4.6302131402e+01 -2.3473345328e+01 -5.8194696782e+02 5.8427668845e+02 4.7000000000e+00 0.0000e+00 -1.0000e+00
      -13  1    4    4    0    0 -1.4796749826e+01 +4.7096454799e+01 -2.0653928156e+02 2.1235699821e+02 0.0000000000e+00 0.0000e+00 1.0000e+00
       14  1    4    4    0    0 +3.1021120875e+01 +3.0782005319e+00 -3.1589290923e+01 4.4380948164e+01 0.0000000000e+00 0.0000e+00 -1.0000e+00
       -5  1    5    5    0  502 -7.3514625810e+01 -1.4477860795e+01 +4.5186595204e+01 8.7623781289e+01 4.7000000000e+00 0.0000e+00 1.0000e+00
       13  1    6    6    0    0 +1.3213577794e+00 -4.3320257058e+01 -1.2764576817e+01 4.5181025655e+01 0.0000000000e+00 0.0000e+00 -1.0000e+00
      -14  1    6    6    0    0 +9.6667655796e+00 +3.1096807850e+01 -4.2269823622e+01 5.3359121097e+01 0.0000000000e+00 0.0000e+00 1.0000e+00
<mgrwt>
<rscale>  2 0.18634958E+03</rscale>
<asrwt>0</asrwt>
<pdfrwt beam="1">  1       21 0.15173478E-01 0.18649859E+03</pdfrwt>
<pdfrwt beam="2">  1       21 0.14285399E+00 0.18649859E+03</pdfrwt>
<totfact> 0.13103182E+04</totfact>
</mgrwt>
</event>
<event>
14      3 +1.4674046e+01 1.75677600e+02 7.54677100e-03 1.17251600e-01
       21 -1    0    0  501  502 +0.0000000000e+00 +0.0000000000e+00 +1.1591947958e+03 1.1591947958e+03 0.0000000000e+00 0.0000e+00 -1.0000e+00
       21 -1    0    0  505  503 -0.0000000000e+00 -0.0000000000e+00 -5.7638232925e+01 5.7638232925e+01 0.0000000000e+00 0.0000e+00 -1.0000e+00
        6  2    1    2  501    0 +2.3590407760e+01 -2.4069919921e+01 +4.9333760196e+02 5.2461695025e+02 1.7522866945e+02 0.0000e+00 0.0000e+00
       24  2    3    3    0    0 +4.7573131838e+01 +3.6032280471e+01 +1.9104100216e+02 2.1543614587e+02 7.9715370741e+01 0.0000e+00 0.0000e+00
       -6  2    1    2    0  503 +2.9359400017e+01 +8.0521815298e-01 +5.5503026235e+02 5.8222134050e+02 1.7337956759e+02 0.0000e+00 0.0000e+00
      -24  2    5    5    0    0 +6.7716033427e+01 -3.3467400139e+01 +2.5836839722e+02 2.8109645625e+02 8.0965801282e+01 0.0000e+00 0.0000e+00
        5  1    3    3  501    0 -2.3982724078e+01 -6.0102200392e+01 +3.0229659980e+02 3.0918080438e+02 4.7000000000e+00 0.0000e+00 -1.0000e+00
      -13  1    4    4    0    0 +2.3839727657e+01 -1.4681135969e+01 +1.7337110741e+01 3.2930893959e+01 0.0000000000e+00 0.0000e+00 1.0000e+00
       14  1    4    4    0    0 +2.3733404181e+01 +5.0713416440e+01 +1.7370389142e+02 1.8250525191e+02 0.0000000000e+00 0.0000e+00 -1.0000e+00
       -5  1    5    5    0  503 -3.8356633410e+01 +3.4272618292e+01 +2.9666186513e+02 3.0112488425e+02 4.7000000000e+00 0.0000e+00 1.0000e+00
       13  1    6    6    0    0 +2.7983060830e+01 +1.9568714041e+01 +3.8512648505e+01 5.1470480448e+01 0.0000000000e+00 0.0000e+00 -1.0000e+00
      -14  1    6    6    0    0 +3.9732972597e+01 -5.3036114180e+01 +2.1985574871e+02 2.2962597580e+02 0.0000000000e+00 0.0000e+00 1.0000e+00
       21  1    1    2  504  502 -4.6923539887e+01 -2.0305748386e+01 +3.7053154145e+01 6.3143315126e+01 0.0000000000e+00 0.0000e+00 -1.0000e+00
       21  1    1    2  505  504 -6.0262678903e+00 +4.3570450153e+01 +1.6135544445e+01 4.6851422879e+01 0.0000000000e+00 0.0000e+00 -1.0000e+00
<mgrwt>
<rscale>  4 0.17521474E+03</rscale>
<asrwt>0</asrwt>
<pdfrwt beam="1">  1       21 0.17833764E+00 0.17567765E+03</pdfrwt>
<pdfrwt beam="2">  1       21 0.88674213E-02 0.17567765E+03</pdfrwt>
<totfact> 0.18962842E+04</totfact>
</mgrwt>
</event>
<event>
13      3 +1.4674046e+01 4.99219700e+02 7.54677100e-03 1.01767500e-01
        2 -1    0    0  501    0 -0.0000000000e+00 +0.0000000000e+00 +1.6965112726e+03 1.6965112726e+03 0.0000000000e+00 0.0000e+00 -1.0000e+00
       21 -1    0    0  504  503 +0.0000000000e+00 -0.0000000000e+00 -8.0834752710e+02 8.0834752710e+02 0.0000000000e+00 0.0000e+00 -1.0000e+00
        6  2    1    2  501    0 -2.0333643297e+02 -3.8281167446e+02 -7.9402677212e+01 4.7336594800e+02 1.7285847535e+02 0.0000e+00 0.0000e+00
       24  2    3    3    0    0 -1.3890670687e+02 -1.4677924455e+02 -4.2229576854e+00 2.1736481948e+02 7.9940049613e+01 0.0000e+00 0.0000e+00
      -24  2    1    2    0    0 +1.3076625124e+02 +1.7299291493e+02 +3.3110938370e+02 4.0441114165e+02 8.2997508613e+01 0.0000e+00 0.0000e+00
        5  1    3    3  501    0 -6.4429726105e+01 -2.3603242991e+02 -7.5179719526e+01 2.5600112852e+02 4.7000000000e+00 0.0000e+00 -1.0000e+00
      -13  1    4    4    0    0 -1.3068723931e+02 -1.5620946263e+02 -9.2626466024e+00 2.0387826602e+02 0.0000000000e+00 0.0000e+00 1.0000e+00
       14  1    4    4    0    0 -8.2194675595e+00 +9.4302180758e+00 +5.0396889170e+00 1.3486553463e+01 0.0000000000e+00 0.0000e+00 -1.0000e+00
       -5  1    1    2    0  503 +6.5273720401e+01 +1.7143622483e+02 -1.8352417616e+00 1.8351156877e+02 4.7000000000e+00 0.0000e+00 1.0000e+00
       13  1    5    5    0    0 +2.8483374384e+01 +1.0630453513e+02 +1.6064996306e+02 1.9473152656e+02 0.0000000000e+00 0.0000e+00 -1.0000e+00
      -14  1    5    5    0    0 +1.0228287685e+02 +6.6688379796e+01 +1.7045942064e+02 2.0967961509e+02 0.0000000000e+00 0.0000e+00 1.0000e+00
       21  1    1    2  504  502 +3.1347128539e+01 +1.6940306489e+01 -4.0160059781e+02 4.0317819462e+02 0.0000000000e+00 0.0000e+00 -1.0000e+00
        2  1    1    2  502    0 -2.4050667203e+01 +2.1442228212e+01 +1.0398928786e+03 1.0403919467e+03 0.0000000000e+00 0.0000e+00 -1.0000e+00
<mgrwt>
<rscale>  4 0.48535204E+03</rscale>
<asrwt>0</asrwt>
<pdfrwt beam="2">  1       21 0.12436116E+00 0.49921975E+03</pdfrwt>
<pdfrwt beam="1">  1        2 0.26100173E+00 0.49921975E+03</pdfrwt>
<totfact> 0.55219346E+01</totfact>
</mgrwt>
</event>
<event>
13      2 +1.4674046e+01 2.77327000e+02 7.54677100e-03 1.11211800e-01
       21 -1    0    0  503  502 +0.0000000000e+00 +0.0000000000e+00 +1.9736028086e+03 1.9736028086e+03 0.0000000000e+00 0.0000e+00 1.0000e+00
       21 -1    0    0  504  503 -0.0000000000e+00 -0.0000000000e+00 -2.2340694262e+02 2.2340694262e+02 0.0000000000e+00 0.0000e+00 -1.0000e+00
        6  2    1    2  501    0 +4.3158014666e+01 +1.4257219553e+02 +1.5205063455e+03 1.5372260648e+03 1.7010285792e+02 0.0000e+00 0.0000e+00
       24  2    3    3    0    0 +8.2130253751e+01 +1.1058963395e+02 +8.1374831727e+02 8.2865657618e+02 7.4229048683e+01 0.0000e+00 0.0000e+00
       -6  2    1    2    0  502 -7.8914164249e-01 +7.5358587156e+01 +3.5703036232e+02 4.0384494885e+02 1.7303330226e+02 0.0000e+00 0.0000e+00
      -24  2    5    5    0    0 -3.1902597241e+01 +5.5699681677e+00 +8.6251855435e+01 1.2245271681e+02 8.0662785921e+01 0.0000e+00 0.0000e+00
        5  1    3    3  501    0 -3.8972239085e+01 +3.1982561582e+01 +7.0675802823e+02 7.0856948857e+02 4.7000000000e+00 0.0000e+00 -1.0000e+00
      -13  1    4    4    0    0 +8.5865930599e+01 +1.0786245719e+02 +8.1214127888e+02 8.2376011348e+02 0.0000000000e+00 0.0000e+00 1.0000e+00
       14  1    4    4    0    0 -3.7356768483e+00 +2.7271767581e+00 +1.6070383985e+00 4.8964627027e+00 0.0000000000e+00 0.0000e+00 -1.0000e+00
       -5  1    5    5    0  502 +3.1113455598e+01 +6.9788618988e+01 +2.7077850689e+02 2.8139223204e+02 4.7000000000e+00 0.0000e+00 1.0000e+00
       13  1    6    6    0    0 -3.2037508633e+01 +4.0651224963e+01 +4.8794010941e+01 7.1132127439e+01 0.0000000000e+00 0.0000e+00 -1.0000e+00
      -14  1    6    6    0    0 +1.3491139254e-01 -3.5081256795e+01 +3.7457844495e+01 5.1320589373e+01 0.0000000000e+00 0.0000e+00 1.0000e+00
       21  1    1    2  504  501 -4.2368873023e+01 -2.1793078268e+02 -1.2734084181e+02 2.5593873766e+02 0.0000000000e+00 0.0000e+00 -1.0000e+00
<mgrwt>
<rscale>  3 0.25188709E+03</rscale>
<asrwt>0</asrwt>
<pdfrwt beam="1">  1       21 0.30363119E+00 0.27732696E+03</pdfrwt>
<pdfrwt beam="2">  1       21 0.34370300E-01 0.27732696E+03</pdfrwt>
<totfact> 0.23828677E+02</totfact>
</mgrwt>
</event>
<event>
12      1 +1.4674046e+01 1.95030500e+02 7.54677100e-03 1.15455900e-01
       21 -1    0    0  501  502 +0.0000000000e+00 +0.0000000000e+00 +1.0360592412e+02 1.0360592412e+02 0.0000000000e+00 0.0000e+00 1.0000e+00
       21 -1    0    0  502  503 -0.0000000000e+00 -0.0000000000e+00 -5.2936469185e+02 5.2936469185e+02 0.0000000000e+00 0.0000e+00 -1.0000e+00
       -6  2    1    2    0  503 -7.4629331798e+01 +5.2639442828e+01 -3.8968264029e+02 4.3463155132e+02 1.6944490891e+02 0.0000e+00 0.0000e+00
      -24  2    3    3    0    0 +1.2464225158e+00 +1.7251860638e+01 -3.0365063365e+02 3.1449409991e+02 8.0022817344e+01 0.0000e+00 0.0000e+00
        6  2    1    2  501    0 +7.4629331798e+01 -5.2639442828e+01 -3.6076127429e+01 1.9833906465e+02 1.7232657801e+02 0.0000e+00 0.0000e+00
       24  2    5    5    0    0 +5.6897071878e+01 -3.3819832065e+00 +3.9443331471e+01 1.0632814658e+02 8.0629918513e+01 0.0000e+00 0.0000e+00
        5  1    5    5  501    0 +1.7732259920e+01 -4.9257459621e+01 -7.5519458900e+01 9.2010918063e+01 4.7000000000e+00 0.0000e+00 -1.0000e+00
      -13  1    6    6    0    0 +6.5763594126e+01 +1.0880963686e+01 +5.2666489060e+01 8.4952956117e+01 0.0000000000e+00 0.0000e+00 1.0000e+00
       14  1    6    6    0    0 -8.8665222475e+00 -1.4262946893e+01 -1.3223157589e+01 2.1375190466e+01 0.0000000000e+00 0.0000e+00 -1.0000e+00
       -5  1    3    3    0  503 -7.5875754314e+01 +3.5387582190e+01 -8.6032006646e+01 1.2013745142e+02 4.7000000000e+00 0.0000e+00 1.0000e+00
       13  1    4    4    0    0 -2.1870109996e+01 +4.2329365538e+01 -1.8525325496e+02 1.9128210938e+02 0.0000000000e+00 0.0000e+00 -1.0000e+00
      -14  1    4    4    0    0 +2.3116532512e+01 -2.5077504900e+01 -1.1839737869e+02 1.2321199052e+02 0.0000000000e+00 0.0000e+00 1.0000e+00
<mgrwt>
<rscale>  2 0.19439201E+03</rscale>
<asrwt>0</asrwt>
<pdfrwt beam="1">  1       21 0.15939373E-01 0.19503050E+03</pdfrwt>
<pdfrwt beam="2">  1       21 0.81440722E-01 0.19503050E+03</pdfrwt>
<totfact> 0.46323602E+04</totfact>
</mgrwt>
</event>
<event>
13      2 +1.4674046e+01 2.62213000e+02 7.54677100e-03 1.10599800e-01
       21 -1    0    0  504  502 +0.0000000000e+00 +0.0000000000e+00 +1.0983944702e+03 1.0983944702e+03 0.0000000000e+00 0.0000e+00 -1.0000e+00
       21 -1    0    0  502  503 -0.0000000000e+00 -0.0000000000e+00 -1.0664077990e+02 1.0664077990e+02 0.0000000000e+00 0.0000e+00 1.0000e+00
       -6  2    1    2    0  503 -1.6792487540e+02 -9.9515670639e+01 +1.0676169741e+02 2.8201494655e+02 1.7329811759e+02 0.0000e+00 0.0000e+00
      -24  2    3    3    0    0 -1.1373796076e+02 -1.0664140259e+02 +1.7223988920e+01 1.7700976088e+02 8.2018761204e+01 0.0000e+00 0.0000e+00
        6  2    1    2  504    0 +1.6792487540e+02 +9.9515670639e+01 +8.8499199289e+02 9.2302030355e+02 1.7508146907e+02 0.0000e+00 0.0000e+00
       24  2    5    5    0    0 +2.2009797596e+01 +1.9226214611e+01 +4.1492458594e+02 4.2365821689e+02 8.0435030934e+01 0.0000e+00 0.0000e+00
        5  1    5    5  501    0 +4.2250561340e+01 +2.5651978017e+01 +1.7408461462e+02 1.8102672995e+02 4.7000000000e+00 0.0000e+00 -1.0000e+00
      -13  1    6    6    0    0 +4.1704044579e+01 -1.0355878177e+01 +1.3999774338e+02 1.4644398143e+02 0.0000000000e+00 0.0000e+00 1.0000e+00
       14  1    6    6    0    0 -1.9694246983e+01 +2.9582092789e+01 +2.7492684257e+02 2.7721423546e+02 0.0000000000e+00 0.0000e+00 -1.0000e+00
       -5  1    3    3    0  503 -5.4186914643e+01 +7.1257319486e+00 +8.9537708491e+01 1.0500518566e+02 4.7000000000e+00 0.0000e+00 1.0000e+00
       13  1    4    4    0    0 -1.6055559444e+01 -4.4213308911e+01 +3.6438538134e+01 5.9500964154e+01 0.0000000000e+00 0.0000e+00 -1.0000e+00
      -14  1    4    4    0    0 -9.7682401317e+01 -6.2428093677e+01 -1.9214549213e+01 1.1750879673e+02 0.0000000000e+00 0.0000e+00 1.0000e+00
       21  1    5    5  504  501 +1.0366451647e+02 +5.4637478011e+01 +2.9598279232e+02 3.1833535671e+02 0.0000000000e+00 0.0000e+00 -1.0000e+00
<mgrwt>
<rscale>  3 0.26191564E+03</rscale>
<asrwt>0</asrwt>
<pdfrwt beam="1">  1       21 0.16898376E+00 0.26221299E+03</pdfrwt>
<pdfrwt beam="2">  1       21 0.16406275E-01 0.26221299E+03</pdfrwt>
<totfact> 0.68673094E+03</totfact>
</mgrwt>
</event>
<event>
13      2 +1.4674046e+01 2.18388300e+02 7.54677100e-03 1.13922400e-01
       21 -1    0    0  504  502 +0.0000000000e+00 +0.0000000000e+00 +4.5156574811e+02 4.5156574811e+02 0.0000000000e+00 0.0000e+00 -1.0000e+00
       21 -1    0    0  501  503 -0.0000000000e+00 -0.0000000000e+00 -1.3376296638e+02 1.3376296638e+02 0.0000000000e+00 0.0000e+00 -1.0000e+00
        6  2    1    2  501    0 +1.2266675278e+01 -1.0529536063e+02 +2.2352934837e+01 2.0270753276e+02 1.7132748130e+02 0.0000e+00 0.0000e+00
       24  2    3    3    0    0 -6.6912288663e+01 -5.5226848749e+01 -1.1124438274e+00 1.0601793555e+02 6.0920488588e+01 0.0000e+00 0.0000e+00
       -6  2    1    2    0  502 +1.3543893751e+00 +8.0240252097e+01 +2.3463912343e+02 3.1545544676e+02 1.9497766082e+02 0.0000e+00 0.0000e+00
      -24  2    5    5    0    0 -7.2216026759e+01 +8.6158485819e+01 +1.5865855722e+02 2.0942352674e+02 7.7763979929e+01 0.0000e+00 0.0000e+00
        5  1    3    3  501    0 +7.9178963940e+01 -5.0068511885e+01 +2.3465378664e+01 9.6689597212e+01 4.7000000000e+00 0.0000e+00 -1.0000e+00
      -13  1    4    4    0    0 -2.5368910817e+01 -5.8690084840e+01 +3.7479658456e+00 6.4048067438e+01 0.0000000000e+00 0.0000e+00 1.0000e+00
       14  1    4    4    0    0 -4.1543377845e+01 +3.4632360909e+00 -4.8604096730e+00 4.1969868110e+01 0.0000000000e+00 0.0000e+00 -1.0000e+00
       -5  1    5    5    0  502 +7.3570416134e+01 -5.9182337220e+00 +7.5980566213e+01 1.0603192002e+02 4.7000000000e+00 0.0000e+00 1.0000e+00
       13  1    6    6    0    0 -3.6165561974e+01 +4.4458249575e+00 +1.3240437655e+01 3.8768833124e+01 0.0000000000e+00 0.0000e+00 -1.0000e+00
      -14  1    6    6    0    0 -3.6050464785e+01 +8.1712660861e+01 +1.4541811956e+02 1.7065469362e+02 0.0000000000e+00 0.0000e+00 1.0000e+00
       21  1    1    2  504  503 -1.3621064653e+01 +2.5055108537e+01 +6.0810723466e+01 6.7165734974e+01 0.0000000000e+00 0.0000e+00 -1.0000e+00
<mgrwt>
<rscale>  3 0.21298412E+03</rscale>
<asrwt>0</asrwt>
<pdfrwt beam="1">  1       21 0.69471653E-01 0.21838831E+03</pdfrwt>
<pdfrwt beam="2">  1       21 0.20578918E-01 0.21838831E+03</pdfrwt>
<totfact> 0.40697446E+04</totfact>
</mgrwt>
</event>
<event>
12      1 +1.4674046e+01 1.73955200e+02 7.54677100e-03 1.17422000e-01
       21 -1    0    0  503  502 +0.0000000000e+00 +0.0000000000e+00 +3.0494960123e+02 3.0494960123e+02 0.0000000000e+00 0.0000e+00 -1.0000e+00
       21 -1    0    0  501  503 -0.0000000000e+00 -0.0000000000e+00 -1.0435703144e+02 1.0435703144e+02 0.0000000000e+00 0.0000e+00 -1.0000e+00
        6  2    1    2  501    0 +1.0860177956e+01 +1.3933733703e+01 +5.1283039445e+01 1.8135698898e+02 1.7305581445e+02 0.0000e+00 0.0000e+00
       24  2    3    3    0    0 +6.9220522217e+01 -1.0859621123e+01 +1.6095592641e+01 1.0868727976e+02 8.1513462761e+01 0.0000e+00 0.0000e+00
       -6  2    1    2    0  502 -1.0860177956e+01 -1.3933733703e+01 +1.4930953035e+02 2.2794964370e+02 1.7133479451e+02 0.0000e+00 0.0000e+00
      -24  2    5    5    0    0 -3.4079045308e+01 +1.8997199581e+01 +1.6452366837e+02 1.8462387580e+02 7.4132740024e+01 0.0000e+00 0.0000e+00
        5  1    3    3  501    0 -5.8360344261e+01 +2.4793354826e+01 +3.5187446805e+01 7.2669709222e+01 4.7000000000e+00 0.0000e+00 -1.0000e+00
      -13  1    4    4    0    0 -3.3875377251e+00 +2.2754675134e+01 +1.7107849605e+01 2.8669307114e+01 0.0000000000e+00 0.0000e+00 1.0000e+00
       14  1    4    4    0    0 +7.2608059942e+01 -3.3614296258e+01 -1.0122569638e+00 8.0017972641e+01 0.0000000000e+00 0.0000e+00 -1.0000e+00
       -5  1    5    5    0  502 +2.3218867352e+01 -3.2930933284e+01 -1.5214138021e+01 4.3325767896e+01 4.7000000000e+00 0.0000e+00 1.0000e+00
       13  1    6    6    0    0 -1.0496643766e+01 +4.3979359304e+01 +6.3759017251e+01 7.8163775855e+01 0.0000000000e+00 0.0000e+00 -1.0000e+00
      -14  1    6    6    0    0 -2.3582401542e+01 -2.4982159723e+01 +1.0076465112e+02 1.0646009995e+02 0.0000000000e+00 0.0000e+00 1.0000e+00
<mgrwt>
<rscale>  2 0.17352559E+03</rscale>
<asrwt>0</asrwt>
<pdfrwt beam="1">  1       21 0.46915323E-01 0.17395519E+03</pdfrwt>
<pdfrwt beam="2">  1       21 0.16054928E-01 0.17395519E+03</pdfrwt>
<totfact> 0.15161000E+05</totfact>
</mgrwt>
</event>
<event>
12      1 +1.4674046e+01 2.19170700e+02 7.54677100e-03 1.13459000e-01
       21 -1    0    0  503  502 +0.0000000000e+00 +0.0000000000e+00 +5.5063017006e+01 5.5063017006e+01 0.0000000000e+00 0.0000e+00 -1.0000e+00
       21 -1    0    0  501  503 -0.0000000000e+00 -0.0000000000e+00 -8.7863092706e+02 8.7863092706e+02 0.0000000000e+00 0.0000e+00 -1.0000e+00
        6  2    1    2  501    0 -1.0841084667e+02 -7.8277169134e+01 -3.6737822153e+02 4.2778797278e+02 1.7365357789e+02 0.0000e+00 0.0000e+00
       24  2    3    3    0    0 -6.3698743552e+01 -8.3409498391e+01 -1.2535691927e+02 1.8157279510e+02 7.8991444853e+01 0.0000e+00 0.0000e+00
       -6  2    1    2    0  502 +1.0841084667e+02 +7.8277169134e+01 -4.5618968852e+02 5.0590597129e+02 1.7306528533e+02 0.0000e+00 0.0000e+00
      -24  2    5    5    0    0 +9.8670719462e+01 +1.1874492152e+02 -3.9561049148e+02 4.3225518598e+02 8.0626407422e+01 0.0000e+00 0.0000e+00
        5  1    3    3  501    0 -4.4712103121e+01 +5.1323292572e+00 -2.4202130226e+02 2.4621517768e+02 4.7000000000e+00 0.0000e+00 -1.0000e+00
      -13  1    4    4    0    0 -3.2761300834e+01 -8.4052208945e+01 -1.2006596470e+02 1.5017960095e+02 0.0000000000e+00 0.0000e+00 1.0000e+00
       14  1    4    4    0    0 -3.0937442718e+01 +6.4271055438e-01 -5.2909545639e+00 3.1393194151e+01 0.0000000000e+00 0.0000e+00 -1.0000e+00
       -5  1    5    5    0  502 +9.7401272112e+00 -4.0467752390e+01 -6.0579197043e+01 7.3650785304e+01 4.7000000000e+00 0.0000e+00 1.0000e+00
       13  1    6    6    0    0 +3.9028693082e+01 +1.4450375917e+01 -1.8650563695e+02 1.9109266040e+02 0.0000000000e+00 0.0000e+00 -1.0000e+00
      -14  1    6    6    0    0 +5.9642026381e+01 +1.0429454561e+02 -2.0910485454e+02 2.4116252558e+02 0.0000000000e+00 0.0000e+00 1.0000e+00
<mgrwt>
<rscale>  2 0.21905414E+03</rscale>
<asrwt>0</asrwt>
<pdfrwt beam="1">  1       21 0.84712332E-02 0.21917069E+03</pdfrwt>
<pdfrwt beam="2">  1       21 0.13517399E+00 0.21917069E+03</pdfrwt>
<totfact> 0.41904710E+04</totfact>
</mgrwt>
</event>
<event>
12      2 +1.4674046e+01 1.96775100e+02 7.54677100e-03 1.15289700e-01
       21 -1    0    0  503  502 +0.0000000000e+00 +0.0000000000e+00 +4.9972362821e+01 4.9972362821e+01 0.0000000000e+00 0.0000e+00 -1.0000e+00
       21 -1    0    0  504  503 -0.0000000000e+00 -0.0000000000e+00 -1.2336935608e+03 1.2336935608e+03 0.0000000000e+00 0.0000e+00 1.0000e+00
        6  2    1    2  501    0 +7.0714325430e+01 -1.8212473173e+01 -4.8670885362e+02 5.2189419100e+02 1.7365433596e+02 0.0000e+00 0.0000e+00
       -6  2    1    2    0  502 -1.0410853408e+02 -6.0505586669e+01 -3.8599754347e+02 4.3921644668e+02 1.7151521970e+02 0.0000e+00 0.0000e+00
      -24  2    4    4    0    0 -3.5521534660e+01 -2.7450944373e+01 -7.3294872239e+01 1.1734405511e+02 7.9888392154e+01 0.0000e+00 0.0000e+00
        5  1    3    3  501    0 -3.6107607200e+01 +2.7597831026e+01 -4.9942490638e+01 6.7688565845e+01 4.7000000000e+00 0.0000e+00 -1.0000e+00
      -13  1    3    3    0    0 +2.3146480979e+01 +6.6067332498e+00 -1.2065536654e+02 1.2303302801e+02 0.0000000000e+00 0.0000e+00 1.0000e+00
       14  1    3    3    0    0 +8.3675451652e+01 -5.2417037449e+01 -3.1611099645e+02 3.3117259714e+02 0.0000000000e+00 0.0000e+00 -1.0000e+00
       -5  1    4    4    0  502 -6.8586999422e+01 -3.3054642296e+01 -3.1270267123e+02 3.2187239158e+02 4.7000000000e+00 0.0000e+00 1.0000e+00
       13  1    5    5    0    0 -5.8388491991e+01 -3.0184013947e+01 -4.0276184130e+01 7.7087364094e+01 0.0000000000e+00 0.0000e+00 -1.0000e+00
      -14  1    5    5    0    0 +2.2866957331e+01 +2.7330695737e+00 -3.3018688109e+01 4.0256691013e+01 0.0000000000e+00 0.0000e+00 1.0000e+00
       21  1    1    2  504  501 +3.3394208652e+01 +7.8718059842e+01 -3.1101480089e+02 3.2255528594e+02 0.0000000000e+00 0.0000e+00 1.0000e+00
<mgrwt>
<rscale>  3 0.19630207E+03</rscale>
<asrwt>0</asrwt>
<pdfrwt beam="1">  1       21 0.76880560E-02 0.19677507E+03</pdfrwt>
<pdfrwt beam="2">  1       21 0.18979900E+00 0.19677507E+03</pdfrwt>
<totfact> 0.20056796E+04</totfact>
</mgrwt>
</event>
<event>
13      2 +1.4674046e+01 2.02979600e+02 7.54677100e-03 1.15019700e-01
       21 -1    0    0  501  502 +0.0000000000e+00 +0.0000000000e+00 +1.2212797797e+02 1.2212797797e+02 0.0000000000e+00 0.0000e+00 1.0000e+00
       21 -1    0    0  504  503 -0.0000000000e+00 -0.0000000000e+00 -4.4675983297e+02 4.4675983297e+02 0.0000000000e+00 0.0000e+00 1.0000e+00
       -6  2    1    2    0  503 -8.4966485521e+01 -1.8752570429e+01 -1.2446124980e+02 2.2834397849e+02 1.7052685200e+02 0.0000e+00 0.0000e+00
      -24  2    3    3    0    0 -5.7898681904e+01 -4.7558797857e+01 -1.4567701231e+02 1.8323673617e+02 8.2096363786e+01 0.0000e+00 0.0000e+00
        6  2    1    2  501    0 +6.8054815209e+01 +4.3159263667e+01 -2.2443090632e+02 3.0219994797e+02 1.8563781115e+02 0.0000e+00 0.0000e+00
       24  2    5    5    0    0 +7.3164192014e+01 -4.8074442397e+00 -2.2905412086e+02 2.5351345177e+02 8.0169629111e+01 0.0000e+00 0.0000e+00
        5  1    5    5  501    0 -5.1093768044e+00 +4.7966707907e+01 +4.6232145485e+00 4.8686496193e+01 4.7000000000e+00 0.0000e+00 -1.0000e+00
      -13  1    6    6    0    0 +1.0021993531e+01 +1.3314050596e+00 +4.8110745116e+00 1.1196402624e+01 0.0000000000e+00 0.0000e+00 1.0000e+00
       14  1    6    6    0    0 +6.3142198483e+01 -6.1388492994e+00 -2.3386519538e+02 2.4231704915e+02 0.0000000000e+00 0.0000e+00 -1.0000e+00
       -5  1    3    3    0  503 -2.7067803617e+01 +2.8806227428e+01 +2.1215762510e+01 4.5107242325e+01 4.7000000000e+00 0.0000e+00 1.0000e+00
       13  1    4    4    0    0 -2.2894893530e+00 -5.3768062023e+01 -5.7082748664e+01 7.8451809732e+01 0.0000000000e+00 0.0000e+00 -1.0000e+00
      -14  1    4    4    0    0 -5.5609192551e+01 +6.2092641660e+00 -8.8594263643e+01 1.0478492644e+02 0.0000000000e+00 0.0000e+00 1.0000e+00
       21  1    1    2  504  502 +1.6911670311e+01 -2.4406693238e+01 +2.4260301115e+01 3.8343884489e+01 0.0000000000e+00 0.0000e+00 1.0000e+00
<mgrwt>
<rscale>  3 0.19945870E+03</rscale>
<asrwt>0</asrwt>
<pdfrwt beam="1">  1       21 0.18788920E-01 0.20297956E+03</pdfrwt>
<pdfrwt beam="2">  1       21 0.68732281E-01 0.20297956E+03</pdfrwt>
<totfact> 0.49765261E+04</totfact>
</mgrwt>
</event>
<event>
13      2 +1.4674046e+01 2.50723100e+02 7.54677100e-03 1.11350500e-01
       21 -1    0    0  504  502 +0.0000000000e+00 +0.0000000000e+00 +3.5277430709e+02 3.5277430709e+02 0.0000000000e+00 0.0000e+00 1.0000e+00
       21 -1    0    0  502  503 -0.0000000000e+00 -0.0000000000e+00 -2.7493848457e+02 2.7493848457e+02 0.0000000000e+00 0.0000e+00 -1.0000e+00
       -6  2    1    2    0  503 +7.2213184278e+01 +1.5207356192e+02 +1.7156483292e+02 2.9706576643e+02 1.7456364304e+02 0.0000e+00 0.0000e+00
      -24  2    3    3    0    0 -3.2028316953e+00 +2.9280796650e+01 +1.1275938499e+02 1.4135510728e+02 7.9993526401e+01 0.0000e+00 0.0000e+00
        6  2    1    2  501    0 -9.9641150912e+01 -1.5472476497e+02 -1.3290423794e+02 2.8275108925e+02 1.6857203255e+02 0.0000e+00 0.0000e+00
       24  2    5    5    0    0 -4.5438062640e+01 -1.7425978202e+01 -1.6942944781e+01 9.4979837089e+01 7.9786112970e+01 0.0000e+00 0.0000e+00
        5  1    5    5  501    0 -5.4203088273e+01 -1.3729878676e+02 -1.1596129316e+02 1.8777125216e+02 4.7000000000e+00 0.0000e+00 -1.0000e+00
      -13  1    6    6    0    0 +1.7578359249e+01 -1.7024467319e+01 +1.0011200740e+01 2.6439654718e+01 0.0000000000e+00 0.0000e+00 1.0000e+00
       14  1    6    6    0    0 -6.3016421888e+01 -4.0151088346e-01 -2.6954145522e+01 6.8540182370e+01 0.0000000000e+00 0.0000e+00 -1.0000e+00
       -5  1    3    3    0  503 +7.5416015974e+01 +1.2279276527e+02 +5.8805447931e+01 1.5571065916e+02 4.7000000000e+00 0.0000e+00 1.0000e+00
       13  1    4    4    0    0 +4.0222170733e+00 -1.0923042875e+01 -7.8344460444e+00 1.4031024219e+01 0.0000000000e+00 0.0000e+00 -1.0000e+00
      -14  1    4    4    0    0 -7.2250487685e+00 +4.0203839525e+01 +1.2059383104e+02 1.2732408306e+02 0.0000000000e+00 0.0000e+00 1.0000e+00
       21  1    1    2  504  501 +2.7427966634e+01 +2.6512030456e+00 +3.9175227532e+01 4.7895935980e+01 0.0000000000e+00 0.0000e+00 1.0000e+00
<mgrwt>
<rscale>  3 0.24968314E+03</rscale>
<asrwt>0</asrwt>
<pdfrwt beam="1">  1       21 0.54272970E-01 0.25072311E+03</pdfrwt>
<pdfrwt beam="2">  1       21 0.42298229E-01 0.25072311E+03</pdfrwt>
<totfact> 0.16697962E+04</totfact>
</mgrwt>
</event>
<event>
13      2 +1.4674046e+01 1.77880800e+02 7.54677100e-03 1.16987000e-01
       -2 -1    0    0    0  501 -0.0000000000e+00 +0.0000000000e+00 +7.9515721006e+02 7.9515721006e+02 0.0000000000e+00 0.0000e+00 -1.0000e+00
        2 -1    0    0  502    0 +0.0000000000e+00 -0.0000000000e+00 -1.0411897133e+02 1.0411897133e+02 0.0000000000e+00 0.0000e+00 1.0000e+00
        6  2    1    2  502    0 -5.7198519443e+01 +3.4087421400e+01 +6.0938255142e+02 6.3681137572e+02 1.7247611819e+02 0.0000e+00 0.0000e+00
       24  2    3    3    0    0 -2.1526337759e+00 +6.9180522726e+01 +4.7711075873e+02 4.8923260885e+02 8.3206315318e+01 0.0000e+00 0.0000e+00
       -6  2    1    2    0  503 +3.9765003720e+01 -1.0175749275e+01 +1.5576602827e+00 1.7707517241e+02 1.7224514212e+02 0.0000e+00 0.0000e+00
      -24  2    5    5    0    0 +6.8027344656e+01 +3.9388626169e+00 +6.0020106552e+01 1.1045738344e+02 6.2890270356e+01 0.0000e+00 0.0000e+00
        5  1    3    3  502    0 -5.5045885667e+01 -3.5093101327e+01 +1.3227179269e+02 1.4757876687e+02 4.7000000000e+00 0.0000e+00 -1.0000e+00
      -13  1    4    4    0    0 -4.6471457593e+00 +1.8206378633e+01 +1.4290206713e+01 2.3606740447e+01 0.0000000000e+00 0.0000e+00 1.0000e+00
       14  1    4    4    0    0 +2.4945119834e+00 +5.0974144094e+01 +4.6282055202e+02 4.6562586840e+02 0.0000000000e+00 0.0000e+00 -1.0000e+00
       -5  1    5    5    0  503 -2.8262340936e+01 -1.4114611892e+01 -5.8462446269e+01 6.6617788974e+01 4.7000000000e+00 0.0000e+00 1.0000e+00
       13  1    6    6    0    0 -4.5703082088e+00 +1.1814956490e+01 +2.7979468202e+01 3.0713703047e+01 0.0000000000e+00 0.0000e+00 -1.0000e+00
      -14  1    6    6    0    0 +7.2597652865e+01 -7.8760938728e+00 +3.2040638350e+01 7.9743680389e+01 0.0000000000e+00 0.0000e+00 1.0000e+00
       21  1    1    2  503  501 +1.7433515723e+01 -2.3911672124e+01 +8.0098027031e+01 8.5389633261e+01 0.0000000000e+00 0.0000e+00 1.0000e+00
<mgrwt>
<rscale>  3 0.17788080E+03</rscale>
<asrwt>0</asrwt>
<pdfrwt beam="2">  1        2 0.16018304E-01 0.17788080E+03</pdfrwt>
<pdfrwt beam="1">  1       -2 0.12233187E+00 0.17788080E+03</pdfrwt>
<totfact> 0.19172875E+02</totfact>
</mgrwt>
</event>
<event>
14      3 +1.4674046e+01 1.80088800e+02 7.54677100e-03 1.16798800e-01
       21 -1    0    0  501  502 +0.0000000000e+00 +0.0000000000e+00 +8.8380702605e+01 8.8380702605e+01 0.0000000000e+00 0.0000e+00 -1.0000e+00
       21 -1    0    0  505  503 -0.0000000000e+00 -0.0000000000e+00 -1.2879776388e+03 1.2879776388e+03 0.0000000000e+00 0.0000e+00 -1.0000e+00
        6  2    1    2  501    0 +6.8052259622e+00 -4.0224041087e+01 -7.8442842200e+01 1.9513571397e+02 1.7395511718e+02 0.0000e+00 0.0000e+00
       24  2    3    3    0    0 -7.9068163495e+00 +4.3028201822e+01 -5.1439260709e+01 1.0626128823e+02 8.2045840456e+01 0.0000e+00 0.0000e+00
       -6  2    1    2    0  504 -3.0193487266e+01 +5.3210845369e+01 -2.6353871321e+02 3.2102234138e+02 1.7279944897e+02 0.0000e+00 0.0000e+00
      -24  2    5    5    0    0 +8.4963379986e+00 +1.8589026001e+01 -4.1606384197e+01 9.3049488570e+01 8.0680706927e+01 0.0000e+00 0.0000e+00
        5  1    3    3  501    0 +1.4712042312e+01 -8.3252242908e+01 -2.7003581492e+01 8.8874425746e+01 4.7000000000e+00 0.0000e+00 -1.0000e+00
      -13  1    4    4    0    0 +2.8349096348e+01 +1.8475510543e+01 +5.6570859606e+00 3.4307701396e+01 0.0000000000e+00 0.0000e+00 1.0000e+00
       14  1    4    4    0    0 -3.6255912697e+01 +2.4552691279e+01 -5.7096346669e+01 7.1953586829e+01 0.0000000000e+00 0.0000e+00 -1.0000e+00
       -5  1    5    5    0  504 -3.8689825265e+01 +3.4621819369e+01 -2.2193232902e+02 2.2797285281e+02 4.7000000000e+00 0.0000e+00 1.0000e+00
       13  1    6    6    0    0 +3.9500411587e+00 +3.6156659629e+01 -5.8087981267e+01 6.8535541352e+01 0.0000000000e+00 0.0000e+00 -1.0000e+00
      -14  1    6    6    0    0 +4.5462968399e+00 -1.7567633628e+01 +1.6481597070e+01 2.4513947219e+01 0.0000000000e+00 0.0000e+00 1.0000e+00
       21  1    1    2  504  503 -5.9965600965e+00 +2.0905478289e+01 -2.6792755801e+02 2.6880880584e+02 0.0000000000e+00 0.0000e+00 -1.0000e+00
       21  1    1    2  505  502 +2.9384821401e+01 -3.3892282572e+01 -5.8968782277e+02 5.9139148021e+02 0.0000000000e+00 0.0000e+00 -1.0000e+00
<mgrwt>
<rscale>  4 0.17980910E+03</rscale>
<asrwt>0</asrwt>
<pdfrwt beam="1">  1       21 0.13597031E-01 0.18008877E+03</pdfrwt>
<pdfrwt beam="2">  1       21 0.19815040E+00 0.18008877E+03</pdfrwt>
<totfact> 0.65433610E+03</totfact>
</mgrwt>
</event>
<event>
13      2 +1.4674046e+01 1.88887100e+02 7.54677100e-03 1.15950500e-01
       21 -1    0    0  503  502 +0.0000000000e+00 +0.0000000000e+00 +3.5447609404e+02 3.5447609404e+02 0.0000000000e+00 0.0000e+00 -1.0000e+00
       21 -1    0    0  501  503 -0.0000000000e+00 -0.0000000000e+00 -2.0033524721e+02 2.0033524721e+02 0.0000000000e+00 0.0000e+00 1.0000e+00
        6  2    1    2  501    0 +6.5843333432e+01 +8.5256926951e+01 +3.9974008779e+00 2.0375544482e+02 1.7290521661e+02 0.0000e+00 0.0000e+00
       24  2    3    3    0    0 +3.2049383746e+01 -1.4004425248e+01 -3.0636117792e+01 9.3227540242e+01 8.0805418266e+01 0.0000e+00 0.0000e+00
       -6  2    1    2    0  504 +9.2867426957e+00 -5.8293171685e+01 +2.1197004067e+00 1.8288157709e+02 1.7308044561e+02 0.0000e+00 0.0000e+00
      -24  2    5    5    0    0 -1.0102050547e+01 +1.2090939494e+01 -4.7824128828e+01 9.4302095896e+01 7.9733905894e+01 0.0000e+00 0.0000e+00
        5  1    3    3  501    0 +3.3793949685e+01 +9.9261352199e+01 +3.4633518670e+01 1.1052790458e+02 4.7000000000e+00 0.0000e+00 -1.0000e+00
      -13  1    4    4    0    0 +2.9153785494e+01 +3.1220597329e+01 -1.3970947596e+01 4.4942811248e+01 0.0000000000e+00 0.0000e+00 1.0000e+00
       14  1    4    4    0    0 +2.8955982527e+00 -4.5225022577e+01 -1.6665170196e+01 4.8284728994e+01 0.0000000000e+00 0.0000e+00 -1.0000e+00
       -5  1    5    5    0  504 +1.9388793242e+01 -7.0384111179e+01 +4.9943829234e+01 8.8579481193e+01 4.7000000000e+00 0.0000e+00 1.0000e+00
       13  1    6    6    0    0 -1.4033139061e+01 -1.3826600841e+01 +1.5951845395e+01 2.5348870867e+01 0.0000000000e+00 0.0000e+00 -1.0000e+00
      -14  1    6    6    0    0 +3.9310885145e+00 +2.5917540335e+01 -6.3775974222e+01 6.8953225029e+01 0.0000000000e+00 0.0000e+00 1.0000e+00
       21  1    1    2  504  502 -7.5130076127e+01 -2.6963755266e+01 +1.4802374555e+02 1.6817431934e+02 0.0000000000e+00 0.0000e+00 -1.0000e+00
<mgrwt>
<rscale>  3 0.18884692E+03</rscale>
<asrwt>0</asrwt>
<pdfrwt beam="1">  1       21 0.54534784E-01 0.18888707E+03</pdfrwt>
<pdfrwt beam="2">  1       21 0.30820807E-01 0.18888707E+03</pdfrwt>
<totfact> 0.32168357E+04</totfact>
</mgrwt>
</event>
<event>
13      2 +1.4674046e+01 2.40559500e+02 7.54677100e-03 1.11957600e-01
        2 -1    0    0  503    0 -0.0000000000e+00 +0.0000000000e+00 +2.4133468547e+02 2.4133468547e+02 0.0000000000e+00 0.0000e+00 -1.0000e+00
       21 -1    0    0  501  503 +0.0000000000e+00 -0.0000000000e+00 -4.6837364028e+02 4.6837364028e+02 0.0000000000e+00 0.0000e+00 -1.0000e+00
       -6  2    1    2    0  502 +1.7993592509e+02 -6.1992701767e+01 -2.1437240520e+02 3.3589437910e+02 1.7506991058e+02 0.0000e+00 0.0000e+00
      -24  2    3    3    0    0 +1.2215022062e+02 -1.4684534971e+01 -4.9808486893e+01 1.5511655000e+02 8.0274197296e+01 0.0000e+00 0.0000e+00
        6  2    1    2  501    0 -1.4319225423e+02 -3.8119639063e+01 -8.6382210822e+01 2.4417376445e+02 1.7378668632e+02 0.0000e+00 0.0000e+00
       24  2    5    5    0    0 -9.1316184239e+01 -9.2235506093e+01 -6.8774646417e+01 1.6702604882e+02 7.9509212710e+01 0.0000e+00 0.0000e+00
        5  1    5    5  501    0 -5.1876069994e+01 +5.4115867029e+01 -1.7607564405e+01 7.7147715628e+01 4.7000000000e+00 0.0000e+00 -1.0000e+00
      -13  1    6    6    0    0 -8.3245101793e+01 -6.5936980771e+01 -8.4165824802e+01 1.3550394264e+02 0.0000000000e+00 0.0000e+00 1.0000e+00
       14  1    6    6    0    0 -8.0710824460e+00 -2.6298525322e+01 +1.5391178385e+01 3.1522106180e+01 0.0000000000e+00 0.0000e+00 -1.0000e+00
       -5  1    3    3    0  502 +5.7785704467e+01 -4.7308166795e+01 -1.6456391831e+02 1.8077782910e+02 4.7000000000e+00 0.0000e+00 1.0000e+00
       13  1    4    4    0    0 +5.2150982292e+01 +2.5328146829e+01 -4.6671042170e+01 7.4427321281e+01 0.0000000000e+00 0.0000e+00 -1.0000e+00
      -14  1    4    4    0    0 +6.9999238327e+01 -4.0012681801e+01 -3.1374447228e+00 8.0689228715e+01 0.0000000000e+00 0.0000e+00 1.0000e+00
        2  1    1    2  502    0 -3.6743670852e+01 +1.0011234083e+02 +7.3715661211e+01 1.2964018220e+02 0.0000000000e+00 0.0000e+00 -1.0000e+00
<mgrwt>
<rscale>  3 0.24032612E+03</rscale>
<asrwt>0</asrwt>
<pdfrwt beam="2">  1       21 0.72057483E-01 0.24055953E+03</pdfrwt>
<pdfrwt beam="1">  1        2 0.37128413E-01 0.24055953E+03</pdfrwt>
<totfact> 0.29280474E+03</totfact>
</mgrwt>
</event>
<event>
13      3 +1.4674046e+01 2.91870900e+02 7.54677100e-03 1.10534900e-01
        2 -1    0    0  501    0 +0.0000000000e+00 +0.0000000000e+00 +1.4499306669e+03 1.4499306669e+03 0.0000000000e+00 0.0000e+00 1.0000e+00
        1 -1    0    0  502    0 -0.0000000000e+00 -0.0000000000e+00 -8.0821442812e+02 8.0821442812e+02 0.0000000000e+00 0.0000e+00 -1.0000e+00
       -6  2    1    2    0  503 +6.6899535122e+01 -7.1453269710e+01 +5.8506047924e+02 6.1766696798e+02 1.7214993875e+02 0.0000e+00 0.0000e+00
      -24  2    3    3    0    0 +1.8737642796e+00 -2.6926783215e+01 +1.2463156987e+02 1.5051835196e+02 7.9963638106e+01 0.0000e+00 0.0000e+00
       24  2    1    2    0    0 -1.5628053377e+02 +4.9936914247e+00 -6.6734535455e+01 1.8815015196e+02 8.0612897683e+01 0.0000e+00 0.0000e+00
        5  1    1    2  501    0 +1.0296336829e+02 +1.4715252398e+01 -8.5006725881e+01 1.3441066665e+02 4.7000000000e+00 0.0000e+00 -1.0000e+00
      -13  1    5    5    0    0 -2.3416949504e+01 +4.8493071023e+00 -4.8455203425e+01 5.4034952044e+01 0.0000000000e+00 0.0000e+00 1.0000e+00
       14  1    5    5    0    0 -1.3286358426e+02 +1.4438432242e-01 -1.8279332031e+01 1.3411519992e+02 0.0000000000e+00 0.0000e+00 -1.0000e+00
       -5  1    3    3    0  503 +6.5025770842e+01 -4.4526486495e+01 +4.6042890937e+02 4.6714861602e+02 4.7000000000e+00 0.0000e+00 1.0000e+00
       13  1    4    4    0    0 +3.8971359319e+01 -6.1368114512e+00 +4.2233833221e+01 5.7793805641e+01 0.0000000000e+00 0.0000e+00 -1.0000e+00
      -14  1    4    4    0    0 -3.7097595039e+01 -2.0789971764e+01 +8.2397736653e+01 9.2724546314e+01 0.0000000000e+00 0.0000e+00 1.0000e+00
        2  1    1    2  502    0 +1.0816433679e+01 +3.1648875510e+01 +7.6233994427e+02 7.6307328428e+02 0.0000000000e+00 0.0000e+00 1.0000e+00
        1  1    1    2  503    0 -2.4398803327e+01 +2.0095450377e+01 -5.5394292340e+02 5.5484402413e+02 0.0000000000e+00 0.0000e+00 -1.0000e+00
<mgrwt>
<rscale>  4 0.26300865E+03</rscale>
<asrwt>0</asrwt>
<pdfrwt beam="1">  1        2 0.22306626E+00 0.29187086E+03</pdfrwt>
<pdfrwt beam="2">  1        1 0.12434068E+00 0.29187086E+03</pdfrwt>
<totfact> 0.45011965E+01</totfact>
</mgrwt>
</event>
<event>
14      3 +1.4674046e+01 2.04467600e+02 7.54677100e-03 1.14614600e-01
       21 -1    0    0  504  502 +0.0000000000e+00 +0.0000000000e+00 +2.8058190654e+03 2.8058190654e+03 0.0000000000e+00 0.0000e+00 1.0000e+00
       21 -1    0    0  501  503 -0.0000000000e+00 -0.0000000000e+00 -5.7782224289e+01 5.7782224289e+01 0.0000000000e+00 0.0000e+00 1.0000e+00
        6  2    1    2  501    0 +1.5479942127e+02 -5.1937858100e+01 +4.4654496355e+02 5.0557716119e+02 1.7188792719e+02 0.0000e+00 0.0000e+00
       24  2    3    3    0    0 +1.6423943387e+02 -8.2549689582e+01 +3.9834281771e+02 4.4751051906e+02 8.8315465014e+01 0.0000e+00 0.0000e+00
       -6  2    1    2    0  505 +1.5181633138e+01 +1.1687453297e+02 +4.5613745138e+02 5.0173848151e+02 1.7259777180e+02 0.0000e+00 0.0000e+00
      -24  2    5    5    0    0 -5.6787011112e+01 +4.5190640120e+01 +2.5641506157e+02 2.7761978697e+02 7.7827397054e+01 0.0000e+00 0.0000e+00
        5  1    3    3  501    0 -9.4400125943e+00 +3.0611831482e+01 +4.8202145836e+01 5.8066642124e+01 4.7000000000e+00 0.0000e+00 -1.0000e+00
      -13  1    4    4    0    0 +3.3086651011e+01 +1.1804891988e+01 +3.3715157944e+01 4.8690798157e+01 0.0000000000e+00 0.0000e+00 1.0000e+00
       14  1    4    4    0    0 +1.3115278286e+02 -9.4354581571e+01 +3.6462765977e+02 3.9881972091e+02 0.0000000000e+00 0.0000e+00 -1.0000e+00
       -5  1    5    5    0  505 +7.1968644250e+01 +7.1683892847e+01 +1.9972238981e+02 2.2411869454e+02 4.7000000000e+00 0.0000e+00 1.0000e+00
       13  1    6    6    0    0 -3.7333405841e+01 +4.4902344441e+01 +2.5059980297e+02 2.5731355381e+02 0.0000000000e+00 0.0000e+00 -1.0000e+00
      -14  1    6    6    0    0 -1.9453605271e+01 +2.8829567868e-01 +5.8152586005e+00 2.0306233157e+01 0.0000000000e+00 0.0000e+00 1.0000e+00
       21  1    1    2  504  503 -1.3366145905e+02 -8.5956923669e+01 +1.4188063077e+03 1.4276782961e+03 0.0000000000e+00 0.0000e+00 1.0000e+00
       21  1    1    2  505  502 -3.6319595365e+01 +2.1020248803e+01 +4.2654811846e+02 4.2860735088e+02 0.0000000000e+00 0.0000e+00 1.0000e+00
<mgrwt>
<rscale>  4 0.20431770E+03</rscale>
<asrwt>0</asrwt>
<pdfrwt beam="1">  1       21 0.43166437E+00 0.20446757E+03</pdfrwt>
<pdfrwt beam="2">  1       21 0.88895752E-02 0.20446757E+03</pdfrwt>
<totfact> 0.53737247E+02</totfact>
</mgrwt>
</event>
<event>
14      3 +1.4674046e+01 3.33758000e+02 7.54677100e-03 1.06969700e-01
        3 -1    0    0  503    0 -0.0000000000e+00 +0.0000000000e+00 +4.1269885995e+02 4.1269885995e+02 0.0000000000e+00 0.0000e+00 1.0000e+00
       21 -1    0    0  504  503 +0.0000000000e+00 -0.0000000000e+00 -1.1435241668e+03 1.1435241668e+03 0.0000000000e+00 0.0000e+00 -1.0000e+00
       -6  2    1    2    0  502 -2.0177786958e+02 +2.0930771422e+02 -9.1987760569e+02 9.8025276879e+02 1.7377184292e+02 0.0000e+00 0.0000e+00
      -24  2    3    3    0    0 -3.2042385677e+01 +5.6583727342e+01 -3.7961589667e+02 3.9370391755e+02 8.1646267568e+01 0.0000e+00 0.0000e+00
        6  2    1    2  501    0 +2.5495400510e+02 -8.4494038629e+01 -1.9725159294e+01 3.2250622274e+02 1.7742715271e+02 0.0000e+00 0.0000e+00
       24  2    5    5    0    0 +1.0477606542e+02 +1.6414838956e+01 +2.7467285682e+01 1.3546282670e+02 7.9675936214e+01 0.0000e+00 0.0000e+00
        5  1    5    5  501    0 +1.5017793967e+02 -1.0090887758e+02 -4.7192444975e+01 1.8704339604e+02 4.7000000000e+00 0.0000e+00 -1.0000e+00
      -13  1    6    6    0    0 +1.0452896398e+02 +9.4747227152e+00 -2.2131195766e+00 1.0498082006e+02 0.0000000000e+00 0.0000e+00 1.0000e+00
       14  1    6    6    0    0 +2.4710143869e-01 +6.9401162406e+00 +2.9680405258e+01 3.0482006641e+01 0.0000000000e+00 0.0000e+00 -1.0000e+00
       -5  1    3    3    0  502 -1.6973548390e+02 +1.5272398688e+02 -5.4026170901e+02 5.8654885124e+02 4.7000000000e+00 0.0000e+00 1.0000e+00
       13  1    4    4    0    0 -1.2927068482e+01 +7.2513001418e+01 -2.1615115726e+02 2.2835622886e+02 0.0000000000e+00 0.0000e+00 -1.0000e+00
      -14  1    4    4    0    0 -1.9115317195e+01 -1.5929274075e+01 -1.6346473941e+02 1.6534768869e+02 0.0000000000e+00 0.0000e+00 1.0000e+00
       21  1    1    2  504  501 -1.3598907296e+00 -5.5509520803e+01 +6.3359987513e+01 8.4247517590e+01 0.0000000000e+00 0.0000e+00 1.0000e+00
        3  1    1    2  502    0 -5.1816244786e+01 -6.9304154788e+01 +1.4541747059e+02 1.6921651765e+02 0.0000000000e+00 0.0000e+00 1.0000e+00
<mgrwt>
<rscale>  4 0.33327474E+03</rscale>
<asrwt>0</asrwt>
<pdfrwt beam="2">  1       21 0.17592679E+00 0.33375797E+03</pdfrwt>
<pdfrwt beam="1">  1        3 0.63492133E-01 0.33375797E+03</pdfrwt>
<totfact> 0.21791743E+01</totfact>
</mgrwt>
</event>
<event>
12      1 +1.4674046e+01 1.90466400e+02 7.54677100e-03 1.15945100e-01
       21 -1    0    0  501  502 +0.0000000000e+00 +0.0000000000e+00 +4.5991723187e+01 4.5991723187e+01 0.0000000000e+00 0.0000e+00 1.0000e+00
       21 -1    0    0  502  503 -0.0000000000e+00 -0.0000000000e+00 -7.7145690154e+02 7.7145690154e+02 0.0000000000e+00 0.0000e+00 1.0000e+00
       -6  2    1    2    0  503 -5.1141203573e+01 +6.0285488668e+01 -3.9842099619e+02 4.3898415231e+02 1.6648733562e+02 0.0000e+00 0.0000e+00
      -24  2    3    3    0    0 +3.1993760563e+01 +3.2013965240e+01 -1.5734994666e+02 1.8237541858e+02 8.0332390134e+01 0.0000e+00 0.0000e+00
        6  2    1    2  501    0 +5.1141203573e+01 -6.0285488668e+01 -3.2704418216e+02 3.7846447242e+02 1.7328501653e+02 0.0000e+00 0.0000e+00
       24  2    5    5    0    0 -2.0824567208e+01 -1.8000851063e+01 -2.5252025167e+02 2.6646907538e+02 8.0508368480e+01 0.0000e+00 0.0000e+00
        5  1    5    5  501    0 +7.1965770780e+01 -4.2284637605e+01 -7.4523930491e+01 1.1199539704e+02 4.7000000000e+00 0.0000e+00 -1.0000e+00
      -13  1    6    6    0    0 -1.9229140984e+00 +1.2829255981e+01 -1.7328768875e+00 1.3087790874e+01 0.0000000000e+00 0.0000e+00 1.0000e+00
       14  1    6    6    0    0 -1.8901653109e+01 -3.0830107044e+01 -2.5078737478e+02 2.5338128451e+02 0.0000000000e+00 0.0000e+00 -1.0000e+00
       -5  1    3    3    0  503 -8.3134964136e+01 +2.8271523429e+01 -2.4107104954e+02 2.5660873373e+02 4.7000000000e+00 0.0000e+00 1.0000e+00
       13  1    4    4    0    0 -1.0685999448e+01 +3.0773339116e+01 -1.2396933724e+02 1.2817794491e+02 0.0000000000e+00 0.0000e+00 -1.0000e+00
      -14  1    4    4    0    0 +4.2679760011e+01 +1.2406261233e+00 -3.3380609415e+01 5.4197473674e+01 0.0000000000e+00 0.0000e+00 1.0000e+00
<mgrwt>
<rscale>  2 0.18890665E+03</rscale>
<asrwt>0</asrwt>
<pdfrwt beam="1">  1       21 0.70756504E-02 0.19046643E+03</pdfrwt>
<pdfrwt beam="2">  1       21 0.11868567E+00 0.19046643E+03</pdfrwt>
<totfact> 0.80664682E+04</totfact>
</mgrwt>
</event>
<event>
14      3 +1.4674046e+01 1.94680200e+02 7.54677100e-03 1.15439200e-01
       21 -1    0    0  501  502 +0.0000000000e+00 +0.0000000000e+00 +4.5721892057e+02 4.5721892057e+02 0.0000000000e+00 0.0000e+00 1.0000e+00
       21 -1    0    0  504  503 -0.0000000000e+00 -0.0000000000e+00 -1.5686238124e+02 1.5686238124e+02 0.0000000000e+00 0.0000e+00 -1.0000e+00
        6  2    1    2  501    0 -1.1267321337e+02 +9.9054278578e+00 +2.8011240138e+02 3.4829962959e+02 1.7336754037e+02 0.0000e+00 0.0000e+00
       24  2    3    3    0    0 -1.4737159185e+02 -7.1306070053e+00 +2.1948937733e+02 2.7624794677e+02 7.9800436689e+01 0.0000e+00 0.0000e+00
       -6  2    1    2    0  503 +8.2532974480e+01 +6.4500924294e+00 -4.0566890613e+01 1.9596821908e+02 1.7292939225e+02 0.0000e+00 0.0000e+00
      -24  2    5    5    0    0 +3.9384415075e+01 -3.9615491616e+01 -3.5055890741e+01 1.0437811126e+02 8.0903370187e+01 0.0000e+00 0.0000e+00
        5  1    3    3  501    0 +3.4698378472e+01 +1.7036034863e+01 +6.0623024052e+01 7.2051682823e+01 4.7000000000e+00 0.0000e+00 -1.0000e+00
      -13  1    4    4    0    0 -6.9987346347e+01 -3.6344324072e+01 +7.0222362011e+01 1.0559506933e+02 0.0000000000e+00 0.0000e+00 1.0000e+00
       14  1    4    4    0    0 -7.7384245498e+01 +2.9213717067e+01 +1.4926701532e+02 1.7065287744e+02 0.0000000000e+00 0.0000e+00 -1.0000e+00
       -5  1    5    5    0  505 +1.3147625926e+00 +3.0916199567e+01 -2.7768022333e+01 4.1841284166e+01 4.7000000000e+00 0.0000e+00 1.0000e+00
       13  1    6    6    0    0 +5.4216823778e+01 -1.2843364173e+01 +2.6908068655e+00 5.5782223203e+01 0.0000000000e+00 0.0000e+00 -1.0000e+00
      -14  1    6    6    0    0 -1.4832408703e+01 -2.6772127443e+01 -3.7746697607e+01 4.8595888057e+01 0.0000000000e+00 0.0000e+00 1.0000e+00
       21  1    1    2  504  502 +3.0140238893e+01 -1.6355520287e+01 +6.0811028562e+01 6.9813453139e+01 0.0000000000e+00 0.0000e+00 1.0000e+00
       21  1    5    5  505  503 +4.1833796812e+01 +1.5149384478e+01 +2.2257022462e+01 4.9748823651e+01 0.0000000000e+00 0.0000e+00 -1.0000e+00
<mgrwt>
<rscale>  4 0.19458260E+03</rscale>
<asrwt>0</asrwt>
<pdfrwt beam="1">  1       21 0.70341372E-01 0.19468019E+03</pdfrwt>
<pdfrwt beam="2">  1       21 0.24132674E-01 0.19468019E+03</pdfrwt>
<totfact> 0.29666405E+04</totfact>
</mgrwt>
</event>
<event>
14      3 +1.4674046e+01 2.71869200e+02 7.54677100e-03 1.11681500e-01
       21 -1    0    0  505  502 +0.0000000000e+00 +0.0000000000e+00 +2.8010248984e+02 2.8010248984e+02 0.0000000000e+00 0.0000e+00 -1.0000e+00
       21 -1    0    0  504  503 -0.0000000000e+00 -0.0000000000e+00 -7.3159449959e+02 7.3159449959e+02 0.0000000000e+00 0.0000e+00 -1.0000e+00
        6  2    1    2  501    0 -1.0541130600e+01 -4.4295800711e+01 -4.9160256807e+01 1.8344833918e+02 1.7077274051e+02 0.0000e+00 0.0000e+00
       24  2    3    3    0    0 -3.1007397109e+00 +4.2755559459e+01 -2.6662581505e+01 9.3107129763e+01 7.8232933658e+01 0.0000e+00 0.0000e+00
       -6  2    1    2    0  502 -2.3990606465e+02 +1.1925014893e+02 -3.1939809298e+02 4.5128668428e+02 1.7282653655e+02 0.0000e+00 0.0000e+00
      -24  2    5    5    0    0 -2.6089860596e+02 +1.1385415929e+02 -3.0521178057e+02 4.2495903808e+02 8.0031874061e+01 0.0000e+00 0.0000e+00
        5  1    3    3  501    0 -7.4403908887e+00 -8.7051360170e+01 -2.2497675302e+01 9.0341209412e+01 4.7000000000e+00 0.0000e+00 -1.0000e+00
      -13  1    4    4    0    0 -1.9569007517e+01 +3.2912608127e+01 +1.9606098615e+01 4.3018425492e+01 0.0000000000e+00 0.0000e+00 1.0000e+00
       14  1    4    4    0    0 +1.6468267806e+01 +9.8429513320e+00 -4.6268680120e+01 5.0088704271e+01 0.0000000000e+00 0.0000e+00 -1.0000e+00
       -5  1    5    5    0  502 +2.0992541310e+01 +5.3959896376e+00 -1.4186312411e+01 2.6327646204e+01 4.7000000000e+00 0.0000e+00 1.0000e+00
       13  1    6    6    0    0 -2.1549265586e+02 +1.2218004358e+02 -2.3879976370e+02 3.4407902424e+02 0.0000000000e+00 0.0000e+00 -1.0000e+00
      -14  1    6    6    0    0 -4.5405950096e+01 -8.3258842894e+00 -6.6412016868e+01 8.0880013834e+01 0.0000000000e+00 0.0000e+00 1.0000e+00
       21  1    1    2  504  501 +1.5864320631e+02 -7.8743267268e+01 -1.7351124534e+02 2.4794015671e+02 0.0000000000e+00 0.0000e+00 -1.0000e+00
       21  1    1    2  505  503 +9.1803988937e+01 +3.7889190509e+00 +9.0577585375e+01 1.2902180926e+02 0.0000000000e+00 0.0000e+00 -1.0000e+00
<mgrwt>
<rscale>  4 0.24452464E+03</rscale>
<asrwt>0</asrwt>
<pdfrwt beam="1">  1       21 0.43092690E-01 0.27186919E+03</pdfrwt>
<pdfrwt beam="2">  1       21 0.11255300E+00 0.27186919E+03</pdfrwt>
<totfact> 0.30162980E+03</totfact>
</mgrwt>
</event>
<event>
14      3 +1.4674046e+01 2.77841800e+02 7.54677100e-03 1.09703300e-01
       21 -1    0    0  503  502 +0.0000000000e+00 +0.0000000000e+00 +8.0189322795e+01 8.0189322795e+01 0.0000000000e+00 0.0000e+00 -1.0000e+00
       21 -1    0    0  504  503 -0.0000000000e+00 -0.0000000000e+00 -3.3342761865e+03 3.3342761865e+03 0.0000000000e+00 0.0000e+00 1.0000e+00
        6  2    1    2  501    0 -1.1628841438e+02 +1.6786982005e+02 -4.7486689462e+02 5.4484077325e+02 1.7219067566e+02 0.0000e+00 0.0000e+00
       24  2    3    3    0    0 -6.3967525284e+00 +4.3587255643e+01 -2.5041820867e+02 2.6569630207e+02 7.7100443618e+01 0.0000e+00 0.0000e+00
       -6  2    1    2    0  502 +1.5744448158e+02 -1.6813977619e+02 -4.7868919176e+02 5.5900872938e+02 1.7403352579e+02 0.0000e+00 0.0000e+00
      -24  2    5    5    0    0 +2.0681759488e+01 -9.0441710981e+01 -1.4474177077e+02 1.8984209833e+02 8.0513376739e+01 0.0000e+00 0.0000e+00
        5  1    3    3  501    0 -1.0989166186e+02 +1.2428256440e+02 -2.2444868595e+02 2.7914447117e+02 4.7000000000e+00 0.0000e+00 -1.0000e+00
      -13  1    4    4    0    0 +1.5318603268e+01 +5.3994487440e+01 -2.1919186662e+02 2.2626342761e+02 0.0000000000e+00 0.0000e+00 1.0000e+00
       14  1    4    4    0    0 -2.1715355797e+01 -1.0407231798e+01 -3.1226342047e+01 3.9432874467e+01 0.0000000000e+00 0.0000e+00 -1.0000e+00
       -5  1    5    5    0  502 +1.3676272209e+02 -7.7698065211e+01 -3.3394742099e+02 3.6916663105e+02 4.7000000000e+00 0.0000e+00 1.0000e+00
       13  1    6    6    0    0 +3.2767837714e-01 -8.2529267536e+01 -5.9226010392e+01 1.0158202439e+02 0.0000000000e+00 0.0000e+00 -1.0000e+00
      -14  1    6    6    0    0 +2.0354081111e+01 -7.9124434452e+00 -8.5515760374e+01 8.8260073937e+01 0.0000000000e+00 0.0000e+00 1.0000e+00
       21  1    1    2  504  505 +1.4924289235e+01 -3.7569825144e+01 -2.0692213242e+03 2.0696161757e+03 0.0000000000e+00 0.0000e+00 1.0000e+00
       21  1    1    2  505  501 -5.6080356433e+01 +3.7839781291e+01 -2.3130945318e+02 2.4099983103e+02 0.0000000000e+00 0.0000e+00 1.0000e+00
<mgrwt>
<rscale>  4 0.27755374E+03</rscale>
<asrwt>0</asrwt>
<pdfrwt beam="1">  1       21 0.12336821E-01 0.27784184E+03</pdfrwt>
<pdfrwt beam="2">  1       21 0.51296547E+00 0.27784184E+03</pdfrwt>
<totfact> 0.74963824E+01</totfact>
</mgrwt>
</event>
<event>
12      1 +1.4674046e+01 2.03522800e+02 7.54677100e-03 1.14776300e-01
       21 -1    0    0  501  502 +0.0000000000e+00 +0.0000000000e+00 +1.7660916400e+02 1.7660916400e+02 0.0000000000e+00 0.0000e+00 -1.0000e+00
       21 -1    0    0  502  503 -0.0000000000e+00 -0.0000000000e+00 -2.8256277884e+02 2.8256277884e+02 0.0000000000e+00 0.0000e+00 -1.0000e+00
        6  2    1    2  501    0 -8.4185839613e+01 -1.6968804990e+01 -1.5318698965e+02 2.5473083019e+02 1.8451651990e+02 0.0000e+00 0.0000e+00
       24  2    3    3    0    0 -1.0615894156e+02 -1.2243745735e+01 -4.1311227638e+01 1.4052303921e+02 8.1366312662e+01 0.0000e+00 0.0000e+00
       -6  2    1    2    0  503 +8.4185839613e+01 +1.6968804990e+01 +4.7233374806e+01 2.0444111266e+02 1.7941566519e+02 0.0000e+00 0.0000e+00
      -24  2    5    5    0    0 +3.5627841017e+01 -1.8833677021e+01 +9.1938568276e+01 1.2920587312e+02 8.1347445355e+01 0.0000e+00 0.0000e+00
        5  1    3    3  501    0 +2.1973101948e+01 -4.7250592552e+00 -1.1187576201e+02 1.1420779098e+02 4.7000000000e+00 0.0000e+00 -1.0000e+00
      -13  1    4    4    0    0 -3.2103454743e+01 -2.8723996274e+01 +1.5458469103e+01 4.5767499772e+01 0.0000000000e+00 0.0000e+00 1.0000e+00
       14  1    4    4    0    0 -7.4055486818e+01 +1.6480250540e+01 -5.6769696740e+01 9.4755539435e+01 0.0000000000e+00 0.0000e+00 -1.0000e+00
       -5  1    5    5    0  503 +4.8557998596e+01 +3.5802482011e+01 -4.4705193470e+01 7.5235239542e+01 4.7000000000e+00 0.0000e+00 1.0000e+00
       13  1    6    6    0    0 +3.8995104911e+01 +2.5315676829e+01 +4.8180879527e+01 6.6954453566e+01 0.0000000000e+00 0.0000e+00 -1.0000e+00
      -14  1    6    6    0    0 -3.3672638941e+00 -4.4149353850e+01 +4.3757688750e+01 6.2251419552e+01 0.0000000000e+00 0.0000e+00 1.0000e+00
<mgrwt>
<rscale>  2 0.20235968E+03</rscale>
<asrwt>0</asrwt>
<pdfrwt beam="1">  1       21 0.27170641E-01 0.20352283E+03</pdfrwt>
<pdfrwt beam="2">  1       21 0.43471197E-01 0.20352283E+03</pdfrwt>
<totfact> 0.65349524E+04</totfact>
</mgrwt>
</event>
<event>
12      1 +1.4674046e+01 1.85055400e+02 7.54677100e-03 1.16332700e-01
       21 -1    0    0  501  502 +0.0000000000e+00 +0.0000000000e+00 +3.6529612697e+02 3.6529612697e+02 0.0000000000e+00 0.0000e+00 1.0000e+00
       21 -1    0    0  502  503 -0.0000000000e+00 -0.0000000000e+00 -1.4364345444e+02 1.4364345444e+02 0.0000000000e+00 0.0000e+00 1.0000e+00
       -6  2    1    2    0  503 +5.5370246563e+01 -3.2650792197e+01 -4.0485595207e+01 1.8806272619e+02 1.7203652846e+02 0.0000e+00 0.0000e+00
      -24  2    3    3    0    0 +4.9622892563e+01 -6.6253343519e+01 +2.0990234972e+01 1.1761039316e+02 8.0868273261e+01 0.0000e+00 0.0000e+00
        6  2    1    2  501    0 -5.5370246563e+01 +3.2650792197e+01 +2.6213826774e+02 3.2087685522e+02 1.7353255132e+02 0.0000e+00 0.0000e+00
       24  2    5    5    0    0 -2.6464319271e+00 +1.9989878471e+00 +4.2097546110e+01 9.2492654988e+01 8.2290268464e+01 0.0000e+00 0.0000e+00
        5  1    5    5  501    0 -5.2723814636e+01 +3.0651804350e+01 +2.2004072163e+02 2.2838420023e+02 4.7000000000e+00 0.0000e+00 -1.0000e+00
      -13  1    6    6    0    0 +2.6504649331e+01 +2.5344615850e+01 +4.1169375159e+01 5.5134049731e+01 0.0000000000e+00 0.0000e+00 1.0000e+00
       14  1    6    6    0    0 -2.9151081259e+01 -2.3345628003e+01 +9.2817095080e-01 3.7358605256e+01 0.0000000000e+00 0.0000e+00 -1.0000e+00
       -5  1    3    3    0  503 +5.7473540004e+00 +3.3602551323e+01 -6.1475830179e+01 7.0452333032e+01 4.7000000000e+00 0.0000e+00 1.0000e+00
       13  1    4    4    0    0 +2.2913818805e+01 +1.5793064012e+01 -3.1652903138e+00 2.8008624134e+01 0.0000000000e+00 0.0000e+00 -1.0000e+00
      -14  1    4    4    0    0 +2.6709073758e+01 -8.2046407532e+01 +2.4155525286e+01 8.9601769021e+01 0.0000000000e+00 0.0000e+00 1.0000e+00
<mgrwt>
<rscale>  2 0.18470382E+03</rscale>
<asrwt>0</asrwt>
<pdfrwt beam="1">  1       21 0.56199404E-01 0.18505536E+03</pdfrwt>
<pdfrwt beam="2">  1       21 0.22098993E-01 0.18505536E+03</pdfrwt>
<totfact> 0.57230752E+04</totfact>
</mgrwt>
</event>
<event>
12      1 +1.4674046e+01 2.42427800e+02 7.54677100e-03 1.11842700e-01
       21 -1    0    0  503  502 +0.0000000000e+00 +0.0000000000e+00 +3.8882156209e+02 3.8882156209e+02 0.0000000000e+00 0.0000e+00 -1.0000e+00
       21 -1    0    0  501  503 -0.0000000000e+00 -0.0000000000e+00 -2.4037925356e+02 2.4037925356e+02 0.0000000000e+00 0.0000e+00 1.0000e+00
        6  2    1    2  501    0 -7.2054141100e+01 -1.5268794824e+02 -1.1856480782e+02 2.6855690333e+02 1.7192960154e+02 0.0000e+00 0.0000e+00
       24  2    3    3    0    0 -4.7358789112e+01 -6.6682813852e+01 -1.3563520881e+02 1.7734159682e+02 7.9772674060e+01 0.0000e+00 0.0000e+00
       -6  2    1    2    0  502 +7.2054141100e+01 +1.5268794824e+02 +2.6700711635e+02 3.6064391232e+02 1.7397075193e+02 0.0000e+00 0.0000e+00
      -24  2    5    5    0    0 -1.6992921027e+01 +9.3924308624e+01 +8.9365492574e+01 1.5337312057e+02 8.0166001122e+01 0.0000e+00 0.0000e+00
        5  1    3    3  501    0 -2.4695351988e+01 -8.6005134392e+01 +1.7070400986e+01 9.1215306509e+01 4.7000000000e+00 0.0000e+00 -1.0000e+00
      -13  1    4    4    0    0 +1.6258539543e+01 -8.8693425243e+00 -6.0163326473e+01 6.2949433652e+01 0.0000000000e+00 0.0000e+00 1.0000e+00
       14  1    4    4    0    0 -6.3617328655e+01 -5.7813471327e+01 -7.5471882334e+01 1.1439216317e+02 0.0000000000e+00 0.0000e+00 -1.0000e+00
       -5  1    5    5    0  502 +8.9047062127e+01 +5.8763639620e+01 +1.7764162377e+02 2.0727079175e+02 4.7000000000e+00 0.0000e+00 1.0000e+00
       13  1    6    6    0    0 -1.3827637809e+01 -1.2221716458e+01 +1.3313152630e+01 2.2755525780e+01 0.0000000000e+00 0.0000e+00 -1.0000e+00
      -14  1    6    6    0    0 -3.1652832181e+00 +1.0614602508e+02 +7.6052339944e+01 1.3061759479e+02 0.0000000000e+00 0.0000e+00 1.0000e+00
<mgrwt>
<rscale>  2 0.24206181E+03</rscale>
<asrwt>0</asrwt>
<pdfrwt beam="1">  1       21 0.59818702E-01 0.24242779E+03</pdfrwt>
<pdfrwt beam="2">  1       21 0.36981424E-01 0.24242779E+03</pdfrwt>
<totfact> 0.17879440E+04</totfact>
</mgrwt>
</event>
<event>
13      2 +1.4674046e+01 2.01872100e+02 7.54677100e-03 1.14918800e-01
       21 -1    0    0  504  502 +0.0000000000e+00 +0.0000000000e+00 +5.8541668550e+02 5.8541668550e+02 0.0000000000e+00 0.0000e+00 -1.0000e+00
       21 -1    0    0  502  503 -0.0000000000e+00 -0.0000000000e+00 -1.3185079963e+02 1.3185079963e+02 0.0000000000e+00 0.0000e+00 1.0000e+00
        6  2    1    2  501    0 -6.1318731642e+01 -1.7480860109e+01 +1.4202058692e+02 2.3652112517e+02 1.7806411268e+02 0.0000e+00 0.0000e+00
       24  2    3    3    0    0 -6.5631023415e+01 -6.9619747425e+00 +1.7345190561e+02 2.0276819042e+02 8.1691340782e+01 0.0000e+00 0.0000e+00
       -6  2    1    2    0  503 +1.1758625506e+02 +9.2395525207e+00 +5.2487600419e+01 2.1552033462e+02 1.7257511329e+02 0.0000e+00 0.0000e+00
      -24  2    5    5    0    0 +2.8346621981e+01 +6.1292713667e+01 +2.9515204225e+01 1.0958136783e+02 8.1096246330e+01 0.0000e+00 0.0000e+00
        5  1    3    3  501    0 +4.3122917723e+00 -1.0518885367e+01 -3.1431318692e+01 3.3752934753e+01 4.7000000000e+00 0.0000e+00 -1.0000e+00
      -13  1    4    4    0    0 -6.2028249802e+01 -3.4734954367e+01 +8.9686485454e+01 1.1444512441e+02 0.0000000000e+00 0.0000e+00 1.0000e+00
       14  1    4    4    0    0 -3.6027736122e+00 +2.7772979624e+01 +8.3765420155e+01 8.8323066006e+01 0.0000000000e+00 0.0000e+00 -1.0000e+00
       -5  1    5    5    0  503 +8.9239633082e+01 -5.2053161147e+01 +2.2972396194e+01 1.0593896679e+02 4.7000000000e+00 0.0000e+00 1.0000e+00
       13  1    6    6    0    0 +3.1798421326e+01 +1.2916599497e+01 +4.6850632504e+01 5.8077189218e+01 0.0000000000e+00 0.0000e+00 -1.0000e+00
      -14  1    6    6    0    0 -3.4517993449e+00 +4.8376114171e+01 -1.7335428280e+01 5.1504178613e+01 0.0000000000e+00 0.0000e+00 1.0000e+00
       21  1    1    2  504  501 -5.6267523420e+01 +8.2413075886e+00 +2.5905769854e+02 2.6522602534e+02 0.0000000000e+00 0.0000e+00 -1.0000e+00
<mgrwt>
<rscale>  3 0.20065501E+03</rscale>
<asrwt>0</asrwt>
<pdfrwt beam="1">  1       21 0.90064104E-01 0.20187215E+03</pdfrwt>
<pdfrwt beam="2">  1       21 0.20284739E-01 0.20187215E+03</pdfrwt>
<totfact> 0.23450121E+04</totfact>
</mgrwt>
</event>
<event>
14      3 +1.4674046e+01 1.87569000e+02 7.54677100e-03 1.16123700e-01
       21 -1    0    0  504  502 +0.0000000000e+00 +0.0000000000e+00 +6.4063977241e+02 6.4063977241e+02 0.0000000000e+00 0.0000e+00 1.0000e+00
       21 -1    0    0  501  503 -0.0000000000e+00 -0.0000000000e+00 -1.5946387334e+02 1.5946387334e+02 0.0000000000e+00 0.0000e+00 1.0000e+00
        6  2    1    2  501    0 +6.9472497332e+01 +6.2892536903e+01 +1.7297297549e+02 2.6210734503e+02 1.7320135965e+02 0.0000e+00 0.0000e+00
       24  2    3    3    0    0 +7.2794335196e+00 +9.6585740121e+01 +1.1568063052e+02 1.7096069439e+02 8.0397483813e+01 0.0000e+00 0.0000e+00
       -6  2    1    2    0  502 -3.3723379956e+01 -5.3021705941e+01 +3.7836972958e+02 4.1976099769e+02 1.7054933382e+02 0.0000e+00 0.0000e+00
      -24  2    5    5    0    0 +1.5287939402e+00 +7.7821844357e+00 +7.9288059269e+01 1.1249602350e+02 7.9409441227e+01 0.0000e+00 0.0000e+00
        5  1    3    3  501    0 +6.2193063812e+01 -3.3693203218e+01 +5.7292344972e+01 9.1146650634e+01 4.7000000000e+00 0.0000e+00 -1.0000e+00
      -13  1    4    4    0    0 +4.0487168126e+01 +3.4652213698e+01 +3.4017949720e+01 6.3223473490e+01 0.0000000000e+00 0.0000e+00 1.0000e+00
       14  1    4    4    0    0 -3.3207734606e+01 +6.1933526423e+01 +8.1662680795e+01 1.0773722090e+02 0.0000000000e+00 0.0000e+00 -1.0000e+00
       -5  1    5    5    0  502 -3.5252173896e+01 -6.0803890377e+01 +2.9908167031e+02 3.0726497419e+02 4.7000000000e+00 0.0000e+00 1.0000e+00
       13  1    6    6    0    0 +3.8070254797e+01 -7.8676901624e+00 +2.9586264806e+01 4.8852757486e+01 0.0000000000e+00 0.0000e+00 -1.0000e+00
      -14  1    6    6    0    0 -3.6541460857e+01 +1.5649874598e+01 +4.9701794464e+01 6.3643266018e+01 0.0000000000e+00 0.0000e+00 1.0000e+00
       21  1    1    2  504  505 +1.5374454258e+01 +1.7740808933e+01 +4.2133359372e+00 2.3850835312e+01 0.0000000000e+00 0.0000e+00 1.0000e+00
       21  1    1    2  505  503 -5.1123571634e+01 -2.7611639895e+01 -7.4380141928e+01 9.4384467724e+01 0.0000000000e+00 0.0000e+00 1.0000e+00
<mgrwt>
<rscale>  4 0.18695448E+03</rscale>
<asrwt>0</asrwt>
<pdfrwt beam="1">  1       21 0.98559964E-01 0.18756901E+03</pdfrwt>
<pdfrwt beam="2">  1       21 0.24532904E-01 0.18756901E+03</pdfrwt>
<totfact> 0.13385412E+04</totfact>
</mgrwt>
</event>
<event>
13      3 +1.4674046e+01 3.39280500e+02 7.54677100e-03 1.09067700e-01
       21 -1    0    0  504  502 +0.0000000000e+00 +0.0000000000e+00 +2.4027910057e+02 2.4027910057e+02 0.0000000000e+00 0.0000e+00 1.0000e+00
       21 -1    0    0  502  503 -0.0000000000e+00 -0.0000000000e+00 -1.7048225497e+03 1.7048225497e+03 0.0000000000e+00 0.0000e+00 -1.0000e+00
       24  2    1    2    0    0 -6.5388827399e+01 +1.7360513558e+02 -3.2667033418e+02 3.8447513472e+02 8.1811858160e+01 0.0000e+00 0.0000e+00
       -6  2    1    2    0  505 +5.4099297766e+01 +2.9139142659e+00 -9.8226069771e+01 2.0654987474e+02 1.7343374832e+02 0.0000e+00 0.0000e+00
      -24  2    4    4    0    0 +9.7110709720e+00 -6.2397230417e+01 -5.2622125135e+01 1.1523903166e+02 8.0766497394e+01 0.0000e+00 0.0000e+00
        5  1    1    2  501    0 +2.8090443773e+01 -1.1776380329e+02 -4.1946368432e+02 4.3661110712e+02 4.7000000000e+00 0.0000e+00 -1.0000e+00
      -13  1    3    3    0    0 -7.0381658348e+00 +6.5547852804e+01 -1.8810344816e+02 1.9932125826e+02 0.0000000000e+00 0.0000e+00 1.0000e+00
       14  1    3    3    0    0 -5.8350661564e+01 +1.0805728277e+02 -1.3856688602e+02 1.8515387645e+02 0.0000000000e+00 0.0000e+00 -1.0000e+00
       -5  1    4    4    0  505 +4.4388226794e+01 +6.5311144683e+01 -4.5603944636e+01 9.1310843081e+01 4.7000000000e+00 0.0000e+00 1.0000e+00
       13  1    5    5    0    0 -8.4273214514e+00 -4.0026852181e+01 +1.3534573260e+01 4.3085418829e+01 0.0000000000e+00 0.0000e+00 -1.0000e+00
      -14  1    5    5    0    0 +1.8138392423e+01 -2.2370378236e+01 -6.6156698395e+01 7.2153612831e+01 0.0000000000e+00 0.0000e+00 1.0000e+00
       21  1    1    2  504  501 -1.5662233383e+01 -1.3944672378e+01 +1.4724419031e+02 1.4872999369e+02 0.0000000000e+00 0.0000e+00 1.0000e+00
       21  1    1    2  505  503 -1.1386807574e+00 -4.4810574177e+01 -7.6742755122e+02 7.6873554004e+02 0.0000000000e+00 0.0000e+00 -1.0000e+00
<mgrwt>
<rscale>  4 0.28937250E+03</rscale>
<asrwt>0</asrwt>
<pdfrwt beam="1">  1       21 0.36966015E-01 0.33928049E+03</pdfrwt>
<pdfrwt beam="2">  1       21 0.26228040E+00 0.33928049E+03</pdfrwt>
<totfact> 0.34213268E+02</totfact>
</mgrwt>
</event>
<event>
13      3 +1.4674046e+01 3.53108200e+02 7.54677100e-03 1.06763200e-01
        2 -1    0    0  503    0 +0.0000000000e+00 +0.0000000000e+00 +4.0558990326e+02 4.0558990326e+02 0.0000000000e+00 0.0000e+00 -1.0000e+00
        3 -1    0    0  501    0 -0.0000000000e+00 -0.0000000000e+00 -2.1645724543e+03 2.1645724543e+03 0.0000000000e+00 0.0000e+00 -1.0000e+00
       24  2    1    2    0    0 -7.5982577822e+01 -1.5196051397e+02 -6.1485748502e+01 1.9760976537e+02 8.0023572553e+01 0.0000e+00 0.0000e+00
       -6  2    1    2    0  502 +2.2150957786e+02 +1.3306104441e+02 -6.6815467173e+02 7.3679138819e+02 1.7221831996e+02 0.0000e+00 0.0000e+00
      -24  2    4    4    0    0 +2.1077914135e+02 +8.7286009840e+01 -6.3355307447e+02 6.7822641068e+02 8.0962164202e+01 0.0000e+00 0.0000e+00
        5  1    1    2  501    0 -1.4508798908e+02 +5.7145759807e+01 -1.3270038038e+02 2.0481123844e+02 4.7000000000e+00 0.0000e+00 -1.0000e+00
      -13  1    3    3    0    0 -3.1606957744e+01 -1.8481535999e+01 -4.1814282669e+01 5.5578783595e+01 0.0000000000e+00 0.0000e+00 1.0000e+00
       14  1    3    3    0    0 -4.4375620077e+01 -1.3347897797e+02 -1.9671465833e+01 1.4203098178e+02 0.0000000000e+00 0.0000e+00 -1.0000e+00
       -5  1    4    4    0  502 +1.0730436512e+01 +4.5775034574e+01 -3.4601597267e+01 5.8564977515e+01 4.7000000000e+00 0.0000e+00 1.0000e+00
       13  1    5    5    0    0 +2.4375966633e+01 -1.4574643052e+01 -9.9659937390e+01 1.0362775251e+02 0.0000000000e+00 0.0000e+00 -1.0000e+00
      -14  1    5    5    0    0 +1.8640317471e+02 +1.0186065289e+02 -5.3389313708e+02 5.7459865817e+02 0.0000000000e+00 0.0000e+00 1.0000e+00
        2  1    1    2  502    0 +1.5963469486e+01 -1.3469119746e+01 +2.6655584289e+02 2.6737289864e+02 0.0000000000e+00 0.0000e+00 -1.0000e+00
        3  1    1    2  503    0 -1.6402480447e+01 -2.4777170507e+01 -1.1631975933e+03 1.1635770669e+03 0.0000000000e+00 0.0000e+00 -1.0000e+00
<mgrwt>
<rscale>  4 0.33804463E+03</rscale>
<asrwt>0</asrwt>
<pdfrwt beam="1">  1        2 0.62398448E-01 0.35310822E+03</pdfrwt>
<pdfrwt beam="2">  1        3 0.33301114E+00 0.35310822E+03</pdfrwt>
<totfact> 0.13877220E+00</totfact>
</mgrwt>
</event>
<event>
14      3 +1.4674046e+01 1.82829600e+02 7.54677100e-03 1.16525400e-01
       -1 -1    0    0    0  501 -0.0000000000e+00 +0.0000000000e+00 +8.8293444228e+02 8.8293444228e+02 0.0000000000e+00 0.0000e+00 -1.0000e+00
       21 -1    0    0  502  503 +0.0000000000e+00 -0.0000000000e+00 -1.5245990137e+02 1.5245990137e+02 0.0000000000e+00 0.0000e+00 1.0000e+00
        6  2    1    2  502    0 +5.2446694492e+01 -7.9752088152e+01 +2.8297529336e+01 1.9999900199e+02 1.7345835034e+02 0.0000e+00 0.0000e+00
       24  2    3    3    0    0 -3.7969405741e+01 -5.1120308353e+01 +1.2864099011e+01 1.0379541179e+02 8.0950854017e+01 0.0000e+00 0.0000e+00
       -6  2    1    2    0  501 -2.8321468350e+01 -4.8906345254e+00 +7.3603589958e+01 1.8995512703e+02 1.7274095621e+02 0.0000e+00 0.0000e+00
      -24  2    5    5    0    0 -8.3196787024e+01 -1.2651929478e+01 +2.7363030409e+01 1.1762382228e+02 7.7490976534e+01 0.0000e+00 0.0000e+00
        5  1    3    3  502    0 +9.0416100234e+01 -2.8631779799e+01 +1.5433430325e+01 9.6203590201e+01 4.7000000000e+00 0.0000e+00 -1.0000e+00
      -13  1    4    4    0    0 -2.2989140443e+01 -1.3542362253e+01 -3.3132594621e+01 4.2540157264e+01 0.0000000000e+00 0.0000e+00 1.0000e+00
       14  1    4    4    0    0 -1.4980265298e+01 -3.7577946100e+01 +4.5996693632e+01 6.1255254522e+01 0.0000000000e+00 0.0000e+00 -1.0000e+00
       -5  1    5    5    0  501 +5.4875318674e+01 +7.7612949522e+00 +4.6240559549e+01 7.2331304747e+01 4.7000000000e+00 0.0000e+00 1.0000e+00
       13  1    6    6    0    0 -7.7167277635e+01 -1.6004850356e+01 +5.0419132425e+01 9.3557644727e+01 0.0000000000e+00 0.0000e+00 -1.0000e+00
      -14  1    6    6    0    0 -6.0295093896e+00 +3.3529208785e+00 -2.3056102016e+01 2.4066177554e+01 0.0000000000e+00 0.0000e+00 1.0000e+00
       21  1    1    2  504  503 -4.7745217082e+01 -4.2461450458e+00 +3.1604738373e+02 3.1966167156e+02 0.0000000000e+00 0.0000e+00 1.0000e+00
       -1  1    1    2    0  504 +2.3619990940e+01 +8.8888867723e+01 +3.1252603788e+02 3.2577854308e+02 0.0000000000e+00 0.0000e+00 -1.0000e+00
<mgrwt>
<rscale>  4 0.18265927E+03</rscale>
<asrwt>0</asrwt>
<pdfrwt beam="2">  1       21 0.23455370E-01 0.18282963E+03</pdfrwt>
<pdfrwt beam="1">  1       -1 0.13583606E+00 0.18282963E+03</pdfrwt>
<totfact> 0.79169333E+02</totfact>
</mgrwt>
</event>
<event>
13      2 +1.4674046e+01 1.91395100e+02 7.54677100e-03 1.15763800e-01
       21 -1    0    0  504  502 +0.0000000000e+00 +0.0000000000e+00 +6.0487629024e+01 6.0487629024e+01 0.0000000000e+00 0.0000e+00 -1.0000e+00
       21 -1    0    0  502  503 -0.0000000000e+00 -0.0000000000e+00 -7.1194112755e+02 7.1194112755e+02 0.0000000000e+00 0.0000e+00 -1.0000e+00
       -6  2    1    2    0  503 +2.8316993030e+01 -5.8959431767e+01 -2.9235840447e+02 3.4734060483e+02 1.7576686949e+02 0.0000e+00 0.0000e+00
      -24  2    3    3    0    0 +7.0651555055e+01 -5.9537878835e+01 -2.7548596440e+02 3.0152227906e+02 8.0540467685e+01 0.0000e+00 0.0000e+00
        6  2    1    2  501    0 -5.0672238514e+01 +6.9259537321e+01 -3.4756008371e+02 3.9790533293e+02 1.7368385912e+02 0.0000e+00 0.0000e+00
       24  2    5    5    0    0 +2.8251194348e+01 +1.8091936710e+01 -2.3986624026e+02 2.5484211081e+02 7.9266891369e+01 0.0000e+00 0.0000e+00
        5  1    5    5  501    0 -7.8923432862e+01 +5.1167600611e+01 -1.0769384345e+02 1.4306322212e+02 4.7000000000e+00 0.0000e+00 -1.0000e+00
      -13  1    6    6    0    0 +1.6536355951e+01 +4.2570065905e+01 -7.5401262573e+01 8.8153343538e+01 0.0000000000e+00 0.0000e+00 1.0000e+00
       14  1    6    6    0    0 +1.1714838396e+01 -2.4478129195e+01 -1.6446497769e+02 1.6668876727e+02 0.0000000000e+00 0.0000e+00 -1.0000e+00
       -5  1    3    3    0  503 -4.2334562025e+01 +5.7844706805e-01 -1.6872440067e+01 4.5818325773e+01 4.7000000000e+00 0.0000e+00 1.0000e+00
       13  1    4    4    0    0 +4.2797933812e+00 -4.9037847942e+01 -7.1920959279e+01 8.7153035207e+01 0.0000000000e+00 0.0000e+00 -1.0000e+00
      -14  1    4    4    0    0 +6.6371761674e+01 -1.0500030893e+01 -2.0356500513e+02 2.1436924385e+02 0.0000000000e+00 0.0000e+00 1.0000e+00
       21  1    1    2  504  501 +2.2355245484e+01 -1.0300105555e+01 -1.1535010344e+01 2.7182818815e+01 0.0000000000e+00 0.0000e+00 -1.0000e+00
<mgrwt>
<rscale>  3 0.19091550E+03</rscale>
<asrwt>0</asrwt>
<pdfrwt beam="1">  1       21 0.93057888E-02 0.19139508E+03</pdfrwt>
<pdfrwt beam="2">  1       21 0.10952941E+00 0.19139508E+03</pdfrwt>
<totfact> 0.60827030E+04</totfact>
</mgrwt>
</event>
<event>
13      2 +1.4674046e+01 1.85002000e+02 7.54677100e-03 1.16308000e-01
       21 -1    0    0  501  503 +0.0000000000e+00 +0.0000000000e+00 +9.8234919361e+02 9.8234919361e+02 0.0000000000e+00 0.0000e+00 -1.0000e+00
        1 -1    0    0  503    0 -0.0000000000e+00 -0.0000000000e+00 -2.1037650937e+02 2.1037650937e+02 0.0000000000e+00 0.0000e+00 1.0000e+00
       -6  2    1    2    0  502 +2.3537700902e+01 +2.5769240390e+00 +1.9154635979e+01 1.7582887011e+02 1.7317109338e+02 0.0000e+00 0.0000e+00
      -24  2    3    3    0    0 +5.5680792832e+01 +3.8385103733e+01 -3.1439827714e+01 1.0584820244e+02 7.5110667109e+01 0.0000e+00 0.0000e+00
        6  2    1    2  501    0 -2.6372425319e+00 -7.2495866385e+01 +8.6384095153e+02 8.8403761147e+02 1.7331677146e+02 0.0000e+00 0.0000e+00
       24  2    5    5    0    0 +3.6296634830e+01 -9.1470685586e+00 +6.7976019540e+02 6.8545077463e+02 7.9798036443e+01 0.0000e+00 0.0000e+00
        5  1    5    5  501    0 -3.8933877362e+01 -6.3348797826e+01 +1.8408075613e+02 1.9858683685e+02 4.7000000000e+00 0.0000e+00 -1.0000e+00
      -13  1    6    6    0    0 -7.5492219884e+00 +1.8528314865e+01 +5.4706448434e+01 5.8250190597e+01 0.0000000000e+00 0.0000e+00 1.0000e+00
       14  1    6    6    0    0 +4.3845856818e+01 -2.7675383424e+01 +6.2505374697e+02 6.2720058403e+02 0.0000000000e+00 0.0000e+00 -1.0000e+00
       -5  1    3    3    0  502 -3.2143091930e+01 -3.5808179694e+01 +5.0594463693e+01 6.9980667674e+01 4.7000000000e+00 0.0000e+00 1.0000e+00
       13  1    4    4    0    0 +3.0955728557e+01 +3.7769623645e+01 -5.3692097628e+01 7.2578529528e+01 0.0000000000e+00 0.0000e+00 -1.0000e+00
      -14  1    4    4    0    0 +2.4725064275e+01 +6.1548008807e-01 +2.2252269914e+01 3.3269672909e+01 0.0000000000e+00 0.0000e+00 1.0000e+00
        1  1    1    2  502    0 -2.0900458370e+01 +6.9918942346e+01 -1.1102290327e+02 1.3285922139e+02 0.0000000000e+00 0.0000e+00 1.0000e+00
<mgrwt>
<rscale>  3 0.18496784E+03</rscale>
<asrwt>0</asrwt>
<pdfrwt beam="1">  1       21 0.15113064E+00 0.18500197E+03</pdfrwt>
<pdfrwt beam="2">  1        1 0.32365618E-01 0.18500197E+03</pdfrwt>
<totfact> 0.43977041E+02</totfact>
</mgrwt>
</event>
<event>
13      3 +1.4674046e+01 4.65079900e+02 7.54677100e-03 1.03239300e-01
       -3 -1    0    0    0  501 -0.0000000000e+00 +0.0000000000e+00 +7.0217450957e+02 7.0217450957e+02 0.0000000000e+00 0.0000e+00 1.0000e+00
       21 -1    0    0  504  503 +0.0000000000e+00 -0.0000000000e+00 -2.0681490842e+03 2.0681490842e+03 0.0000000000e+00 0.0000e+00 -1.0000e+00
       -6  2    1    2    0  501 -1.5569466528e+02 -3.0693719130e+02 -8.7676387643e+01 3.9499543917e+02 1.7286694251e+02 0.0000e+00 0.0000e+00
      -24  2    3    3    0    0 -4.9260943630e+01 -4.8845715221e+01 -3.5956257835e+01 1.1102993254e+02 7.8881233376e+01 0.0000e+00 0.0000e+00
       24  2    1    2    0    0 +2.0160569063e+02 +1.6895271938e+02 -3.9760042078e+02 4.8309910446e+02 7.8158647956e+01 0.0000e+00 0.0000e+00
        5  1    1    2  502    0 -4.8513867457e+01 +2.9510084753e+01 +4.3984051063e+01 7.1980047136e+01 4.7000000000e+00 0.0000e+00 -1.0000e+00
      -13  1    5    5    0    0 +1.0044736302e+02 +9.5921823778e+01 -2.7548891374e+02 3.0852035688e+02 0.0000000000e+00 0.0000e+00 1.0000e+00
       14  1    5    5    0    0 +1.0115832761e+02 +7.3030895601e+01 -1.2211150703e+02 1.7457874758e+02 0.0000000000e+00 0.0000e+00 -1.0000e+00
       -5  1    3    3    0  501 -1.0643372165e+02 -2.5809147608e+02 -5.1720129809e+01 2.8396550663e+02 4.7000000000e+00 0.0000e+00 1.0000e+00
       13  1    4    4    0    0 +2.1483687783e+01 -1.6740541054e+01 -7.0078516805e+00 2.8123025099e+01 0.0000000000e+00 0.0000e+00 -1.0000e+00
      -14  1    4    4    0    0 -7.0744631413e+01 -3.2105174167e+01 -2.8948406154e+01 8.2906907438e+01 0.0000000000e+00 0.0000e+00 1.0000e+00
       21  1    1    2  504  502 +4.8628313423e+01 +7.6726635687e+01 -1.3692091158e+03 1.3722191124e+03 0.0000000000e+00 0.0000e+00 -1.0000e+00
       -3  1    1    2    0  503 -4.6025471308e+01 +3.1747751480e+01 +4.4452729855e+02 4.4802989063e+02 0.0000000000e+00 0.0000e+00 1.0000e+00
<mgrwt>
<rscale>  4 0.43467581E+03</rscale>
<asrwt>0</asrwt>
<pdfrwt beam="2">  1       21 0.31817678E+00 0.46507986E+03</pdfrwt>
<pdfrwt beam="1">  1       -3 0.10802685E+00 0.46507986E+03</pdfrwt>
<totfact> 0.80071670E-01</totfact>
</mgrwt>
</event>
<event>
12      1 +1.4674046e+01 1.75376900e+02 7.54677100e-03 1.17316500e-01
       21 -1    0    0  503  502 +0.0000000000e+00 +0.0000000000e+00 +1.8519761583e+02 1.8519761583e+02 0.0000000000e+00 0.0000e+00 1.0000e+00
       21 -1    0    0  501  503 -0.0000000000e+00 -0.0000000000e+00 -3.0440366288e+02 3.0440366288e+02 0.0000000000e+00 0.0000e+00 1.0000e+00
        6  2    1    2  501    0 -1.2523674100e+01 -1.9551231764e+01 -2.2612130720e+02 2.8420426556e+02 1.7059345216e+02 0.0000e+00 0.0000e+00
       24  2    3    3    0    0 +2.6726079441e+01 -6.7892460779e+01 -1.2591086356e+02 1.6612954096e+02 8.0136191980e+01 0.0000e+00 0.0000e+00
       -6  2    1    2    0  502 +1.2523674100e+01 +1.9551231764e+01 +1.0691526014e+02 2.0539701315e+02 1.7383315875e+02 0.0000e+00 0.0000e+00
      -24  2    5    5    0    0 -4.4751055107e+01 -1.4450943157e+01 +1.6409054367e+01 9.2924768617e+01 7.8449148281e+01 0.0000e+00 0.0000e+00
        5  1    3    3  501    0 -3.9249753541e+01 +4.8341229015e+01 -1.0021044364e+02 1.1807472460e+02 4.7000000000e+00 0.0000e+00 -1.0000e+00
      -13  1    4    4    0    0 -2.1976374830e+01 +9.7467746225e-01 -4.0504854293e+01 4.6092887392e+01 0.0000000000e+00 0.0000e+00 1.0000e+00
       14  1    4    4    0    0 +4.8702454270e+01 -6.8867138242e+01 -8.5406009264e+01 1.2003665357e+02 0.0000000000e+00 0.0000e+00 -1.0000e+00
       -5  1    5    5    0  502 +5.7274729207e+01 +3.4002174921e+01 +9.0506205776e+01 1.1247224453e+02 4.7000000000e+00 0.0000e+00 1.0000e+00
       13  1    6    6    0    0 -2.0500754147e+01 -4.0176044631e+01 -1.2997832226e+01 4.6939739297e+01 0.0000000000e+00 0.0000e+00 -1.0000e+00
      -14  1    6    6    0    0 -2.4250300961e+01 +2.5725101474e+01 +2.9406886592e+01 4.5985029320e+01 0.0000000000e+00 0.0000e+00 1.0000e+00
<mgrwt>
<rscale>  2 0.17456868E+03</rscale>
<asrwt>0</asrwt>
<pdfrwt beam="1">  1       21 0.28491941E-01 0.17537691E+03</pdfrwt>
<pdfrwt beam="2">  1       21 0.46831332E-01 0.17537691E+03</pdfrwt>
<totfact> 0.51836606E+04</totfact>
</mgrwt>
</event>
<event>
12      2 +1.4674046e+01 2.55925800e+02 7.54677100e-03 1.11400800e-01
        1 -1    0    0  503    0 -0.0000000000e+00 +0.0000000000e+00 +4.6223943017e+02 4.6223943017e+02 0.0000000000e+00 0.0000e+00 1.0000e+00
       21 -1    0    0  501  503 +0.0000000000e+00 -0.0000000000e+00 -2.1978033602e+02 2.1978033602e+02 0.0000000000e+00 0.0000e+00 -1.0000e+00
       -6  2    1    2    0  502 -1.8215219353e+02 -6.7226034766e+01 +2.5214309437e+02 3.6225373937e+02 1.7306897553e+02 0.0000e+00 0.0000e+00
      -24  2    3    3    0    0 -1.2339168121e+02 -4.7192913795e+01 +2.5666231320e+02 2.9983069007e+02 8.1056903419e+01 0.0000e+00 0.0000e+00
       24  2    1    2    0    0 -2.8465993068e+01 +5.4858083688e+01 -1.0973230126e+01 1.0185303921e+02 8.0211643224e+01 0.0000e+00 0.0000e+00
        5  1    1    2  501    0 +1.4556638525e+02 +1.2248910350e+01 -2.4008607260e+01 1.4811519686e+02 4.7000000000e+00 0.0000e+00 -1.0000e+00
      -13  1    5    5    0    0 -1.8513018240e+01 +5.5265445693e+01 +2.5811426415e+01 6.3743478613e+01 0.0000000000e+00 0.0000e+00 1.0000e+00
       14  1    5    5    0    0 -9.9529748276e+00 -4.0736200555e-01 -3.6784656541e+01 3.8109560593e+01 0.0000000000e+00 0.0000e+00 -1.0000e+00
       -5  1    3    3    0  502 -5.8760512322e+01 -2.0033120971e+01 -4.5192188305e+00 6.2423049293e+01 4.7000000000e+00 0.0000e+00 1.0000e+00
       13  1    4    4    0    0 -3.5836726092e+01 +2.3309614884e+00 +1.6635746256e+01 3.9578433167e+01 0.0000000000e+00 0.0000e+00 -1.0000e+00
      -14  1    4    4    0    0 -8.7554955114e+01 -4.9523875283e+01 +2.4002656694e+02 2.6025225691e+02 0.0000000000e+00 0.0000e+00 1.0000e+00
        1  1    1    2  502    0 +6.5051801348e+01 +1.1904072915e-01 +2.5297837169e+01 6.9797790758e+01 0.0000000000e+00 0.0000e+00 1.0000e+00
<mgrwt>
<rscale>  3 0.24889062E+03</rscale>
<asrwt>0</asrwt>
<pdfrwt beam="2">  1       21 0.33812359E-01 0.25592580E+03</pdfrwt>
<pdfrwt beam="1">  1        1 0.71113758E-01 0.25592580E+03</pdfrwt>
<totfact> 0.45749063E+03</totfact>
</mgrwt>
</event>
<event>
13      3 +1.4674046e+01 5.83978200e+02 7.54677100e-03 1.02415600e-01
       21 -1    0    0  504  503 +0.0000000000e+00 +0.0000000000e+00 +3.1310459456e+03 3.1310459456e+03 0.0000000000e+00 0.0000e+00 1.0000e+00
        2 -1    0    0  503    0 -0.0000000000e+00 -0.0000000000e+00 -7.4992158525e+02 7.4992158525e+02 0.0000000000e+00 0.0000e+00 -1.0000e+00
       -6  2    1    2    0  502 +1.3772693832e+02 +6.9510446583e+01 +1.3617833243e+03 1.3827370025e+03 1.8359570760e+02 0.0000e+00 0.0000e+00
      -24  2    3    3    0    0 +5.0925968441e+00 -8.7964020285e+00 +4.4990364134e+02 4.5792865620e+02 8.4747014383e+01 0.0000e+00 0.0000e+00
       24  2    1    2    0    0 -2.3281694375e+02 -7.2508729460e+01 +1.0338676309e+03 1.0654156087e+03 8.2261144134e+01 0.0000e+00 0.0000e+00
        5  1    1    2  501    0 +1.5581728788e+02 +1.9516313459e+01 +5.5642991884e+01 1.6666777205e+02 4.7000000000e+00 0.0000e+00 -1.0000e+00
      -13  1    5    5    0    0 -1.5667864299e+02 -7.3409745048e+00 +6.5473988920e+02 6.7326548225e+02 0.0000000000e+00 0.0000e+00 1.0000e+00
       14  1    5    5    0    0 -7.6138300755e+01 -6.5167754955e+01 +3.7912774173e+02 3.9215012645e+02 0.0000000000e+00 0.0000e+00 -1.0000e+00
       -5  1    3    3    0  502 +1.3263434148e+02 +7.8306848611e+01 +9.1187968301e+02 9.2480834629e+02 4.7000000000e+00 0.0000e+00 1.0000e+00
       13  1    4    4    0    0 +3.2395791663e+01 -3.3240894224e+01 +1.9765585936e+02 2.0303271437e+02 0.0000000000e+00 0.0000e+00 -1.0000e+00
      -14  1    4    4    0    0 -2.7303194819e+01 +2.4444492196e+01 +2.5224778198e+02 2.5489594182e+02 0.0000000000e+00 0.0000e+00 1.0000e+00
       21  1    1    2  504  501 -2.7954127097e+01 +2.7199552677e+00 +5.9711807140e+02 5.9777823862e+02 0.0000000000e+00 0.0000e+00 1.0000e+00
        2  1    1    2  502    0 -3.2773155359e+01 -1.9237985850e+01 -6.6728765817e+02 6.6836890903e+02 0.0000000000e+00 0.0000e+00 -1.0000e+00
<mgrwt>
<rscale>  4 0.46216361E+03</rscale>
<asrwt>0</asrwt>
<pdfrwt beam="1">  1       21 0.48169937E+00 0.58397824E+03</pdfrwt>
<pdfrwt beam="2">  1        2 0.11537255E+00 0.58397824E+03</pdfrwt>
<totfact> 0.82659396E-01</totfact>
</mgrwt>
</event>
<event>
14      3 +1.4674046e+01 1.80484300e+02 7.54677100e-03 1.16828700e-01
       21 -1    0    0  504  503 +0.0000000000e+00 +0.0000000000e+00 +8.4325855779e+01 8.4325855779e+01 0.0000000000e+00 0.0000e+00 -1.0000e+00
        2 -1    0    0  503    0 -0.0000000000e+00 -0.0000000000e+00 -3.9962099354e+03 3.9962099354e+03 0.0000000000e+00 0.0000e+00 1.0000e+00
       -6  2    1    2    0  502 -1.6984919128e+01 +1.3974340024e+01 -3.3825781841e+02 3.8045446716e+02 1.7275265615e+02 0.0000e+00 0.0000e+00
      -24  2    3    3    0    0 -1.3565106347e+01 +3.0821810604e+01 -6.8501921746e+01 1.1011048966e+02 7.9358745771e+01 0.0000e+00 0.0000e+00
        6  2    1    2  504    0 +1.5934551485e+01 -6.2529374714e+01 -6.6239267259e+01 1.9235809948e+02 1.6867176787e+02 0.0000e+00 0.0000e+00
       24  2    5    5    0    0 +1.0134157498e+01 +8.6469795015e+00 +1.0420569054e+01 8.3107337179e+01 8.1368113109e+01 0.0000e+00 0.0000e+00
        5  1    5    5  501    0 +1.0364933433e+01 -1.9662259943e+01 -9.8456860577e+00 2.4760126112e+01 4.7000000000e+00 0.0000e+00 -1.0000e+00
      -13  1    6    6    0    0 +3.0974257846e+01 +1.5973342407e+00 -2.6057442910e+01 4.0508597319e+01 0.0000000000e+00 0.0000e+00 1.0000e+00
       14  1    6    6    0    0 -2.0840100348e+01 +7.0496452609e+00 +3.6478011964e+01 4.2598739860e+01 0.0000000000e+00 0.0000e+00 -1.0000e+00
       -5  1    3    3    0  502 -3.4198127804e+00 -1.6847470580e+01 -2.6975589667e+02 2.7034397750e+02 4.7000000000e+00 0.0000e+00 1.0000e+00
       13  1    4    4    0    0 -3.5072569041e+01 +2.7260033970e+01 -7.5169284596e+01 8.7313320278e+01 0.0000000000e+00 0.0000e+00 -1.0000e+00
      -14  1    4    4    0    0 +2.1507462694e+01 +3.5617766339e+00 +6.6673628502e+00 2.2797169379e+01 0.0000000000e+00 0.0000e+00 1.0000e+00
       21  1    5    5  504  501 -4.5645394462e+00 -5.1514094273e+01 -6.6814150255e+01 8.4490636188e+01 0.0000000000e+00 0.0000e+00 -1.0000e+00
        2  1    1    2  502    0 +1.0503676426e+00 +4.8555034690e+01 -3.5073869939e+03 3.5077232245e+03 0.0000000000e+00 0.0000e+00 1.0000e+00
<mgrwt>
<rscale>  4 0.17950078E+03</rscale>
<asrwt>0</asrwt>
<pdfrwt beam="1">  1       21 0.12973206E-01 0.18048432E+03</pdfrwt>
<pdfrwt beam="2">  1        2 0.61480166E+00 0.18048432E+03</pdfrwt>
<totfact> 0.31212851E+02</totfact>
</mgrwt>
</event>
<event>
13      2 +1.4674046e+01 1.83053900e+02 7.54677100e-03 1.16495300e-01
       21 -1    0    0  504  502 +0.0000000000e+00 +0.0000000000e+00 +1.2687811746e+02 1.2687811746e+02 0.0000000000e+00 0.0000e+00 -1.0000e+00
       21 -1    0    0  502  503 -0.0000000000e+00 -0.0000000000e+00 -1.1265466150e+03 1.1265466150e+03 0.0000000000e+00 0.0000e+00 -1.0000e+00
       -6  2    1    2    0  503 -1.4635623878e+01 -5.7800693128e+01 -8.8879407188e+02 9.0753476925e+02 1.7352041256e+02 0.0000e+00 0.0000e+00
      -24  2    3    3    0    0 +1.4734873700e+01 -9.8675856656e+01 -5.3348343964e+02 5.4864601141e+02 8.0335697392e+01 0.0000e+00 0.0000e+00
        6  2    1    2  501    0 -1.5455507800e+01 +5.7155718175e+01 -1.8843371756e+02 2.6269539629e+02 1.7319340772e+02 0.0000e+00 0.0000e+00
       24  2    5    5    0    0 +2.7445096775e+01 +9.2649898679e+01 -1.1570906845e+02 1.7098245658e+02 8.0679457569e+01 0.0000e+00 0.0000e+00
        5  1    5    5  501    0 -4.2900604575e+01 -3.5494180504e+01 -7.2724649105e+01 9.1712939708e+01 4.7000000000e+00 0.0000e+00 -1.0000e+00
      -13  1    6    6    0    0 +2.2173991881e+01 +6.7566112287e+01 -1.2492303515e+02 1.4374501785e+02 0.0000000000e+00 0.0000e+00 1.0000e+00
       14  1    6    6    0    0 +5.2711048938e+00 +2.5083786392e+01 +9.2139666931e+00 2.7237438734e+01 0.0000000000e+00 0.0000e+00 -1.0000e+00
       -5  1    3    3    0  503 -2.9370497578e+01 +4.0875163528e+01 -3.5531063225e+02 3.5888875785e+02 4.7000000000e+00 0.0000e+00 1.0000e+00
       13  1    4    4    0    0 +2.7934661625e+01 -8.8696228681e+00 -6.2968852448e+01 6.9455683054e+01 0.0000000000e+00 0.0000e+00 -1.0000e+00
      -14  1    4    4    0    0 -1.3199787925e+01 -8.9806233788e+01 -4.7051458719e+02 4.7919032835e+02 0.0000000000e+00 0.0000e+00 1.0000e+00
       21  1    1    2  504  501 +3.0091131678e+01 +6.4497495239e-01 +7.7559291919e+01 8.3194566898e+01 0.0000000000e+00 0.0000e+00 -1.0000e+00
<mgrwt>
<rscale>  3 0.18297635E+03</rscale>
<asrwt>0</asrwt>
<pdfrwt beam="1">  1       21 0.19519711E-01 0.18305389E+03</pdfrwt>
<pdfrwt beam="2">  1       21 0.17331486E+00 0.18305389E+03</pdfrwt>
<totfact> 0.49285155E+03</totfact>
</mgrwt>
</event>
<event>
12      2 +1.4674046e+01 1.01575300e+03 7.54677100e-03 9.76207300e-02
       21 -1    0    0  503  502 +0.0000000000e+00 +0.0000000000e+00 +9.7982709216e+02 9.7982709216e+02 0.0000000000e+00 0.0000e+00 -1.0000e+00
       21 -1    0    0  504  503 -0.0000000000e+00 -0.0000000000e+00 -1.1274876205e+03 1.1274876205e+03 0.0000000000e+00 0.0000e+00 -1.0000e+00
       24  2    1    2    0    0 +3.0583033486e+02 +2.2702901459e+02 -2.2386266366e+02 4.4911501491e+02 8.0718258477e+01 0.0000e+00 0.0000e+00
       -6  2    1    2    0  502 -6.5694925482e+01 -6.4601858663e+01 +2.3573862335e+02 3.0659474766e+02 1.7302721571e+02 0.0000e+00 0.0000e+00
      -24  2    4    4    0    0 +3.1267149691e+01 -1.4604572495e+01 +1.0932487837e+02 1.3955015012e+02 7.9570014335e+01 0.0000e+00 0.0000e+00
        5  1    1    2  501    0 -2.4563793510e+02 -1.1248815570e+02 +5.6449413042e+02 6.2583327940e+02 4.7000000000e+00 0.0000e+00 -1.0000e+00
      -13  1    3    3    0    0 +1.7351343497e+02 +1.4638987200e+02 -1.7500464526e+02 2.8664181935e+02 0.0000000000e+00 0.0000e+00 1.0000e+00
       14  1    3    3    0    0 +1.3231689988e+02 +8.0639142594e+01 -4.8858018408e+01 1.6247319556e+02 0.0000000000e+00 0.0000e+00 -1.0000e+00
       -5  1    4    4    0  502 -9.6962075173e+01 -4.9997286168e+01 +1.2641374498e+02 1.6704459753e+02 4.7000000000e+00 0.0000e+00 1.0000e+00
       13  1    5    5    0    0 +4.7435509170e+01 -3.5293805285e+01 +6.3712664738e+01 8.6919985445e+01 0.0000000000e+00 0.0000e+00 -1.0000e+00
      -14  1    5    5    0    0 -1.6168359479e+01 +2.0689232790e+01 +4.5612213629e+01 5.2630164676e+01 0.0000000000e+00 0.0000e+00 1.0000e+00
       21  1    1    2  504  501 +5.5025257244e+00 -4.9939000224e+01 -7.2403061846e+02 7.2577167071e+02 0.0000000000e+00 0.0000e+00 -1.0000e+00
<mgrwt>
<rscale>  3 0.67438275E+03</rscale>
<asrwt>0</asrwt>
<pdfrwt beam="1">  1       21 0.15074263E+00 0.10157531E+04</pdfrwt>
<pdfrwt beam="2">  1       21 0.17345963E+00 0.10157531E+04</pdfrwt>
<totfact> 0.37512977E+01</totfact>
</mgrwt>
</event>
<event>
12      1 +1.4674046e+01 2.89630100e+02 7.54677100e-03 1.09068900e-01
       21 -1    0    0  501  502 +0.0000000000e+00 +0.0000000000e+00 +4.6546467917e+02 4.6546467917e+02 0.0000000000e+00 0.0000e+00 -1.0000e+00
       21 -1    0    0  502  503 -0.0000000000e+00 -0.0000000000e+00 -1.8275583502e+02 1.8275583502e+02 0.0000000000e+00 0.0000e+00 -1.0000e+00
       -6  2    1    2    0  503 +1.9287984159e+02 +1.2911846965e+02 +1.8473009623e+02 3.4352701063e+02 1.7323794643e+02 0.0000e+00 0.0000e+00
      -24  2    3    3    0    0 +1.0391291480e+02 +1.1788035323e+02 +5.3849338060e+01 1.8480312402e+02 8.0986245107e+01 0.0000e+00 0.0000e+00
        6  2    1    2  501    0 -1.9287984159e+02 -1.2911846965e+02 +9.7978747922e+01 3.0469350355e+02 1.7135951553e+02 0.0000e+00 0.0000e+00
       24  2    5    5    0    0 -1.3313985722e+02 -1.4082323866e+02 +1.1736270416e+02 2.4063341372e+02 8.1074221185e+01 0.0000e+00 0.0000e+00
        5  1    5    5  501    0 -5.9739984371e+01 +1.1704769010e+01 -1.9383956236e+01 6.4060089835e+01 4.7000000000e+00 0.0000e+00 -1.0000e+00
      -13  1    6    6    0    0 -1.1993430717e+02 -1.0585542107e+02 +1.2434175996e+02 2.0260918408e+02 0.0000000000e+00 0.0000e+00 1.0000e+00
       14  1    6    6    0    0 -1.3205550054e+01 -3.4967817589e+01 -6.9790557982e+00 3.8024229631e+01 0.0000000000e+00 0.0000e+00 -1.0000e+00
       -5  1    3    3    0  503 +8.8966926795e+01 +1.1238116420e+01 +1.3088075817e+02 1.5872388662e+02 4.7000000000e+00 0.0000e+00 1.0000e+00
       13  1    4    4    0    0 +3.3073881614e+01 +4.9935083102e+01 +6.2128416151e+01 8.6297938925e+01 0.0000000000e+00 0.0000e+00 -1.0000e+00
      -14  1    4    4    0    0 +7.0839033186e+01 +6.7945270129e+01 -8.2790780909e+00 9.8505185090e+01 0.0000000000e+00 0.0000e+00 1.0000e+00
<mgrwt>
<rscale>  2 0.28934979E+03</rscale>
<asrwt>0</asrwt>
<pdfrwt beam="1">  1       21 0.71609950E-01 0.28963011E+03</pdfrwt>
<pdfrwt beam="2">  1       21 0.28116282E-01 0.28963011E+03</pdfrwt>
<totfact> 0.20278554E+04</totfact>
</mgrwt>
</event>
<event>
13      2 +1.4674046e+01 5.43666900e+02 7.54677100e-03 1.02694300e-01
       21 -1    0    0  504  502 +0.0000000000e+00 +0.0000000000e+00 +6.6619939652e+02 6.6619939652e+02 0.0000000000e+00 0.0000e+00 1.0000e+00
       21 -1    0    0  501  503 -0.0000000000e+00 -0.0000000000e+00 -1.5018445060e+03 1.5018445060e+03 0.0000000000e+00 0.0000e+00 1.0000e+00
        6  2    1    2  501    0 -4.8086703447e+01 +5.7142680157e+02 -1.1568582589e+03 1.3027224525e+03 1.7298507649e+02 0.0000e+00 0.0000e+00
       24  2    3    3    0    0 -2.8087126753e+01 +4.1025338872e+02 -9.6053764712e+02 1.0478877519e+03 7.9620596186e+01 0.0000e+00 0.0000e+00
       -6  2    1    2    0  502 +6.3669146488e+01 -1.8320874776e+02 +3.9136022740e+02 4.7050923841e+02 1.7491972551e+02 0.0000e+00 0.0000e+00
      -24  2    5    5    0    0 +1.0392676539e+02 -8.5052402669e+01 +1.9989282237e+02 2.5156358043e+02 7.2748957384e+01 0.0000e+00 0.0000e+00
        5  1    3    3  501    0 -1.9999576694e+01 +1.6117341285e+02 -1.9632061173e+02 2.5483470067e+02 4.7000000000e+00 0.0000e+00 -1.0000e+00
      -13  1    4    4    0    0 -2.1169341103e+01 +3.6245221519e+02 -7.6970694223e+02 8.5103967371e+02 0.0000000000e+00 0.0000e+00 1.0000e+00
       14  1    4    4    0    0 -6.9177856500e+00 +4.7801173530e+01 -1.9083070488e+02 1.9684807816e+02 0.0000000000e+00 0.0000e+00 -1.0000e+00
       -5  1    5    5    0  502 -4.0257618900e+01 -9.8156345086e+01 +1.9146740503e+02 2.1894565798e+02 4.7000000000e+00 0.0000e+00 1.0000e+00
       13  1    6    6    0    0 -1.1263210186e+01 -1.1296032833e+01 +2.0697262490e+01 2.6131148770e+01 0.0000000000e+00 0.0000e+00 -1.0000e+00
      -14  1    6    6    0    0 +1.1518997557e+02 -7.3756369836e+01 +1.7919555988e+02 2.2543243166e+02 0.0000000000e+00 0.0000e+00 1.0000e+00
       21  1    1    2  504  503 -1.5582443041e+01 -3.8821805381e+02 -7.0147078020e+01 3.9481221155e+02 0.0000000000e+00 0.0000e+00 1.0000e+00
<mgrwt>
<rscale>  3 0.45262186E+03</rscale>
<asrwt>0</asrwt>
<pdfrwt beam="1">  1       21 0.10249222E+00 0.54366687E+03</pdfrwt>
<pdfrwt beam="2">  1       21 0.23105300E+00 0.54366687E+03</pdfrwt>
<totfact> 0.49216156E+01</totfact>
</mgrwt>
</event>
<event>
13      2 +1.4674046e+01 1.94561000e+02 7.54677100e-03 1.15461800e-01
       21 -1    0    0  504  502 +0.0000000000e+00 +0.0000000000e+00 +1.1885268621e+02 1.1885268621e+02 0.0000000000e+00 0.0000e+00 -1.0000e+00
       21 -1    0    0  501  503 -0.0000000000e+00 -0.0000000000e+00 -4.4520182603e+02 4.4520182603e+02 0.0000000000e+00 0.0000e+00 1.0000e+00
        6  2    1    2  501    0 +5.6041380648e+01 +2.3900987230e+01 -1.5739538712e+02 2.4248114384e+02 1.7410314097e+02 0.0000e+00 0.0000e+00
       24  2    3    3    0    0 -9.6539891345e+00 -1.0745121971e+01 -1.4825840528e+02 1.6750242065e+02 7.6601886630e+01 0.0000e+00 0.0000e+00
       -6  2    1    2    0  502 -1.1613694701e+02 -3.4953678680e+01 -1.4318226845e+02 2.5525739381e+02 1.7304804242e+02 0.0000e+00 0.0000e+00
      -24  2    5    5    0    0 +4.3831746749e+00 -7.9710436255e+00 -9.0432520712e+01 1.2087812379e+02 7.9691469135e+01 0.0000e+00 0.0000e+00
        5  1    3    3  501    0 +6.5695369783e+01 +3.4646109201e+01 -9.1369818361e+00 7.4978723187e+01 4.7000000000e+00 0.0000e+00 -1.0000e+00
      -13  1    4    4    0    0 -1.4813335535e+01 +3.1479559529e+01 -7.7330559388e+01 8.4796302944e+01 0.0000000000e+00 0.0000e+00 1.0000e+00
       14  1    4    4    0    0 +5.1593464009e+00 -4.2224681500e+01 -7.0927845891e+01 8.2706117705e+01 0.0000000000e+00 0.0000e+00 -1.0000e+00
       -5  1    5    5    0  502 -1.2052012168e+02 -2.6982635055e+01 -5.2749747741e+01 1.3437927002e+02 4.7000000000e+00 0.0000e+00 1.0000e+00
       13  1    6    6    0    0 -1.6625982510e+01 -2.0437941036e+01 +8.7303771110e-01 2.6360859680e+01 0.0000000000e+00 0.0000e+00 -1.0000e+00
      -14  1    6    6    0    0 +2.1009157185e+01 +1.2466897410e+01 -9.1305558423e+01 9.4517264114e+01 0.0000000000e+00 0.0000e+00 1.0000e+00
       21  1    1    2  504  503 +6.0095566358e+01 +1.1052691451e+01 -2.5771484253e+01 6.6315974582e+01 0.0000000000e+00 0.0000e+00 -1.0000e+00
<mgrwt>
<rscale>  3 0.19432465E+03</rscale>
<asrwt>0</asrwt>
<pdfrwt beam="1">  1       21 0.18285029E-01 0.19456097E+03</pdfrwt>
<pdfrwt beam="2">  1       21 0.68492589E-01 0.19456097E+03</pdfrwt>
<totfact> 0.52964455E+04</totfact>
</mgrwt>
</event>
<event>
14      3 +1.4674046e+01 2.48153800e+02 7.54677100e-03 1.11458100e-01
       21 -1    0    0  504  502 +0.0000000000e+00 +0.0000000000e+00 +2.5206087150e+02 2.5206087150e+02 0.0000000000e+00 0.0000e+00 1.0000e+00
       21 -1    0    0  502  503 -0.0000000000e+00 -0.0000000000e+00 -1.0116957633e+03 1.0116957633e+03 0.0000000000e+00 0.0000e+00 -1.0000e+00
       -6  2    1    2    0  505 +1.2879338158e+02 -1.3159393631e+02 -6.8004800337e+02 7.2544028083e+02 1.7289770083e+02 0.0000e+00 0.0000e+00
      -24  2    3    3    0    0 +1.1575025560e+02 -5.2532603661e+01 -5.6867609758e+02 5.8815732903e+02 7.9867037132e+01 0.0000e+00 0.0000e+00
        6  2    1    2  501    0 -6.6383764357e+01 +1.6958853309e+02 +1.3501097788e+02 2.8567356015e+02 1.7382273758e+02 0.0000e+00 0.0000e+00
       24  2    5    5    0    0 +9.8811537616e+00 +1.1129792230e+02 +1.3051302197e+02 1.8946308958e+02 7.9860808290e+01 0.0000e+00 0.0000e+00
        5  1    5    5  501    0 -7.6264918118e+01 +5.8290610788e+01 +4.4979559145e+00 9.6210470579e+01 4.7000000000e+00 0.0000e+00 -1.0000e+00
      -13  1    6    6    0    0 +2.9285534458e+01 +1.1031707856e+02 +9.3047865442e+01 1.4725965372e+02 0.0000000000e+00 0.0000e+00 1.0000e+00
       14  1    6    6    0    0 -1.9404380697e+01 +9.8084374106e-01 +3.7465156525e+01 4.2203435857e+01 0.0000000000e+00 0.0000e+00 -1.0000e+00
       -5  1    3    3    0  505 +1.3043125982e+01 -7.9061332644e+01 -1.1137190579e+02 1.3728295180e+02 4.7000000000e+00 0.0000e+00 1.0000e+00
       13  1    4    4    0    0 -3.1329140514e+00 +1.3286830975e+01 -6.8747644728e+01 7.0089897157e+01 0.0000000000e+00 0.0000e+00 -1.0000e+00
      -14  1    4    4    0    0 +1.1888316965e+02 -6.5819434636e+01 -4.9992845285e+02 5.1806743188e+02 0.0000000000e+00 0.0000e+00 1.0000e+00
       21  1    1    2  504  501 +2.3552379672e+01 +3.7283448878e+00 -8.2282583569e+00 2.5225371739e+01 0.0000000000e+00 0.0000e+00 -1.0000e+00
       21  1    1    2  505  503 -8.5961996898e+01 -4.1722941670e+01 -2.0636960796e+02 2.2741742208e+02 0.0000000000e+00 0.0000e+00 -1.0000e+00
<mgrwt>
<rscale>  4 0.24799190E+03</rscale>
<asrwt>0</asrwt>
<pdfrwt beam="1">  1       21 0.38778596E-01 0.24815382E+03</pdfrwt>
<pdfrwt beam="2">  1       21 0.15564550E+00 0.24815382E+03</pdfrwt>
<totfact> 0.16544953E+03</totfact>
</mgrwt>
</event>
<event>
13      2 +1.4674046e+01 1.95027000e+02 7.54677100e-03 1.15400400e-01
       21 -1    0    0  502  503 +0.0000000000e+00 +0.0000000000e+00 +1.2061472542e+02 1.2061472542e+02 0.0000000000e+00 0.0000e+00 1.0000e+00
        2 -1    0    0  501    0 -0.0000000000e+00 -0.0000000000e+00 -1.4044790133e+03 1.4044790133e+03 0.0000000000e+00 0.0000e+00 1.0000e+00
        6  2    1    2  501    0 +2.5557966201e+01 +6.9643732768e+01 -6.8216546993e+02 7.0719710170e+02 1.7109808046e+02 0.0000e+00 0.0000e+00
       24  2    3    3    0    0 +5.7991369277e+01 +4.6117978018e+01 -6.3832666039e+02 6.4762094881e+02 8.0387195259e+01 0.0000e+00 0.0000e+00
       -6  2    1    2    0  503 -1.1322003480e+02 -6.2322993713e+01 -6.7158391221e+02 7.0554825965e+02 1.7340837271e+02 0.0000e+00 0.0000e+00
      -24  2    5    5    0    0 -9.3966979185e+01 +1.8324950176e+01 -3.0269992852e+02 3.2743153901e+02 8.0115972407e+01 0.0000e+00 0.0000e+00
        5  1    3    3  501    0 -3.2433403076e+01 +2.3525754750e+01 -4.3838809537e+01 5.9576152891e+01 4.7000000000e+00 0.0000e+00 -1.0000e+00
      -13  1    4    4    0    0 +4.9983697374e+01 +6.3915972882e+01 -3.8041722157e+02 3.8897414318e+02 0.0000000000e+00 0.0000e+00 1.0000e+00
       14  1    4    4    0    0 +8.0076719031e+00 -1.7797994864e+01 -2.5790943882e+02 2.5864680563e+02 0.0000000000e+00 0.0000e+00 -1.0000e+00
       -5  1    5    5    0  503 -1.9253055616e+01 -8.0647943890e+01 -3.6888398369e+02 3.7811672064e+02 4.7000000000e+00 0.0000e+00 1.0000e+00
       13  1    6    6    0    0 -4.8146653811e+00 -2.4998940350e+01 -5.3755252981e+01 5.9479031973e+01 0.0000000000e+00 0.0000e+00 -1.0000e+00
      -14  1    6    6    0    0 -8.9152313804e+01 +4.3323890527e+01 -2.4894467554e+02 2.6795250704e+02 0.0000000000e+00 0.0000e+00 1.0000e+00
        2  1    1    2  502    0 +8.7662068600e+01 -7.3207390542e+00 +6.9885094280e+01 1.1234837735e+02 0.0000000000e+00 0.0000e+00 1.0000e+00
<mgrwt>
<rscale>  3 0.19502704E+03</rscale>
<asrwt>0</asrwt>
<pdfrwt beam="1">  1       21 0.18556110E-01 0.19502704E+03</pdfrwt>
<pdfrwt beam="2">  1        2 0.21607371E+00 0.19502704E+03</pdfrwt>
<totfact> 0.52307238E+03</totfact>
</mgrwt>
</event>
<event>
13      2 +1.4674046e+01 2.09705500e+02 7.54677100e-03 1.14253200e-01
        1 -1    0    0  503    0 -0.0000000000e+00 +0.0000000000e+00 +5.0281775376e+02 5.0281775376e+02 0.0000000000e+00 0.0000e+00 -1.0000e+00
       21 -1    0    0  501  503 +0.0000000000e+00 -0.0000000000e+00 -2.1259759970e+02 2.1259759970e+02 0.0000000000e+00 0.0000e+00 1.0000e+00
       -6  2    1    2    0  502 +1.0735663323e+02 +8.1385765376e+01 +2.0542963816e+02 3.0130083239e+02 1.7444702880e+02 0.0000e+00 0.0000e+00
      -24  2    3    3    0    0 +1.1199385753e+02 -1.1310044560e+00 +1.2077039870e+02 1.8289560455e+02 7.9507293160e+01 0.0000e+00 0.0000e+00
        6  2    1    2  501    0 -3.6448319520e+01 -1.1056776249e+02 -8.8765445376e+01 2.2437456850e+02 1.7003215167e+02 0.0000e+00 0.0000e+00
       24  2    5    5    0    0 -7.4576931653e+01 -5.9073250896e+01 -1.2496885874e+01 1.2465266040e+02 7.9565984452e+01 0.0000e+00 0.0000e+00
        5  1    5    5  501    0 +3.8128612132e+01 -5.1494511597e+01 -7.6268559502e+01 9.9721908106e+01 4.7000000000e+00 0.0000e+00 -1.0000e+00
      -13  1    6    6    0    0 -9.9861587502e+00 -2.6779672865e+01 -3.8456710629e+01 4.7914432458e+01 0.0000000000e+00 0.0000e+00 1.0000e+00
       14  1    6    6    0    0 -6.4590772902e+01 -3.2293578031e+01 +2.5959824755e+01 7.6738227941e+01 0.0000000000e+00 0.0000e+00 -1.0000e+00
       -5  1    3    3    0  502 -4.6372243033e+00 +8.2516769832e+01 +8.4659239468e+01 1.1840522784e+02 4.7000000000e+00 0.0000e+00 1.0000e+00
       13  1    4    4    0    0 +1.8131894613e+01 +4.5917776861e+00 +7.6876952127e+01 7.9119629631e+01 0.0000000000e+00 0.0000e+00 -1.0000e+00
      -14  1    4    4    0    0 +9.3861962915e+01 -5.7227821421e+00 +4.3893446569e+01 1.0377597491e+02 0.0000000000e+00 0.0000e+00 1.0000e+00
        1  1    1    2  502    0 -7.0908313705e+01 +2.9181997117e+01 +1.7355596127e+02 1.8973995257e+02 0.0000000000e+00 0.0000e+00 -1.0000e+00
<mgrwt>
<rscale>  3 0.20878500E+03</rscale>
<asrwt>0</asrwt>
<pdfrwt beam="2">  1       21 0.32707323E-01 0.20970554E+03</pdfrwt>
<pdfrwt beam="1">  1        1 0.77356577E-01 0.20970554E+03</pdfrwt>
<totfact> 0.44316107E+03</totfact>
</mgrwt>
</event>
<event>
12      1 +1.4674046e+01 1.96833200e+02 7.54677100e-03 1.15326900e-01
       21 -1    0    0  503  502 +0.0000000000e+00 +0.0000000000e+00 +9.8689999123e+02 9.8689999123e+02 0.0000000000e+00 0.0000e+00 1.0000e+00
       21 -1    0    0  501  503 -0.0000000000e+00 -0.0000000000e+00 -1.2679450141e+02 1.2679450141e+02 0.0000000000e+00 0.0000e+00 1.0000e+00
        6  2    1    2  501    0 -6.8186290135e+01 -5.9466665462e+01 -3.3340476384e+01 1.9963687630e+02 1.7480743848e+02 0.0000e+00 0.0000e+00
       24  2    3    3    0    0 -9.4681638832e+01 -4.4149066757e+01 -7.2184378988e+01 1.4996222379e+02 7.9776758303e+01 0.0000e+00 0.0000e+00
       -6  2    1    2    0  502 +6.8186290135e+01 +5.9466665462e+01 +8.9344596620e+02 9.1405761634e+02 1.7049919944e+02 0.0000e+00 0.0000e+00
      -24  2    5    5    0    0 +6.6235634981e+01 +8.3846089621e+01 +4.3730087322e+02 4.5723314543e+02 8.0079769421e+01 0.0000e+00 0.0000e+00
        5  1    3    3  501    0 +2.6495348697e+01 -1.5317598705e+01 +3.8843902604e+01 4.9674652512e+01 4.7000000000e+00 0.0000e+00 -1.0000e+00
      -13  1    4    4    0    0 -6.9071111217e+01 +1.2277023676e+00 -6.9186856005e+01 9.7770888825e+01 0.0000000000e+00 0.0000e+00 1.0000e+00
       14  1    4    4    0    0 -2.5610527616e+01 -4.5376769125e+01 -2.9975229829e+00 5.2191334961e+01 0.0000000000e+00 0.0000e+00 -1.0000e+00
       -5  1    5    5    0  502 +1.9506551540e+00 -2.4379424159e+01 +4.5614509298e+02 4.5682447091e+02 4.7000000000e+00 0.0000e+00 1.0000e+00
       13  1    6    6    0    0 -4.4254438227e-02 +5.5758030010e+01 +1.2715726428e+02 1.3884498453e+02 0.0000000000e+00 0.0000e+00 -1.0000e+00
      -14  1    6    6    0    0 +6.6279889419e+01 +2.8088059611e+01 +3.1014360894e+02 3.1838816090e+02 0.0000000000e+00 0.0000e+00 1.0000e+00
<mgrwt>
<rscale>  2 0.19587215E+03</rscale>
<asrwt>0</asrwt>
<pdfrwt beam="1">  1       21 0.15183076E+00 0.19683317E+03</pdfrwt>
<pdfrwt beam="2">  1       21 0.19506847E-01 0.19683317E+03</pdfrwt>
<totfact> 0.69775632E+03</totfact>
</mgrwt>
</event>
<event>
12      1 +1.4674046e+01 2.97700600e+02 7.54677100e-03 1.08639600e-01
        1 -1    0    0  502    0 +0.0000000000e+00 +0.0000000000e+00 +2.9952419314e+03 2.9952419314e+03 0.0000000000e+00 0.0000e+00 -1.0000e+00
       -1 -1    0    0    0  501 -0.0000000000e+00 -0.0000000000e+00 -3.4729464205e+01 3.4729464205e+01 0.0000000000e+00 0.0000e+00 1.0000e+00
        6  2    1    2  502    0 +1.2268951098e+02 +2.0548940624e+02 +2.0533975619e+03 2.0745424888e+03 1.7322349316e+02 0.0000e+00 0.0000e+00
       24  2    3    3    0    0 +1.3306031648e+02 +9.2912404634e+01 +1.1162447043e+03 1.1305834307e+03 7.6673927603e+01 0.0000e+00 0.0000e+00
       -6  2    1    2    0  501 -1.2268951098e+02 -2.0548940624e+02 +9.0711490534e+02 9.5542890682e+02 1.8085445062e+02 0.0000e+00 0.0000e+00
      -24  2    5    5    0    0 +5.1800699094e-01 -7.3030463294e+01 +2.1429161472e+02 2.3936210401e+02 7.7714887878e+01 0.0000e+00 0.0000e+00
        5  1    3    3  502    0 -1.0370805499e+01 +1.1257700161e+02 +9.3715285759e+02 9.4395905811e+02 4.7000000000e+00 0.0000e+00 -1.0000e+00
      -13  1    4    4    0    0 +6.8317207590e+01 +1.8127000058e+01 +2.9239425210e+02 3.0081593649e+02 0.0000000000e+00 0.0000e+00 1.0000e+00
       14  1    4    4    0    0 +6.4743108885e+01 +7.4785404576e+01 +8.2385045219e+02 8.2976749421e+02 0.0000000000e+00 0.0000e+00 -1.0000e+00
       -5  1    5    5    0  501 -1.2320751797e+02 -1.3245894295e+02 +6.9282329063e+02 7.1606680281e+02 4.7000000000e+00 0.0000e+00 1.0000e+00
       13  1    6    6    0    0 +2.7940233532e+00 -8.8013815241e+01 +2.0001593211e+02 2.1854201275e+02 0.0000000000e+00 0.0000e+00 -1.0000e+00
      -14  1    6    6    0    0 -2.2760163622e+00 +1.4983351948e+01 +1.4275682604e+01 2.0820091255e+01 0.0000000000e+00 0.0000e+00 1.0000e+00
<mgrwt>
<rscale>  2 0.29770064E+03</rscale>
<asrwt>0</asrwt>
<pdfrwt beam="1">  1        1 0.46080625E+00 0.29770064E+03</pdfrwt>
<pdfrwt beam="2">  1       -1 0.53429968E-02 0.29770064E+03</pdfrwt>
<totfact> 0.11524006E+02</totfact>
</mgrwt>
</event>
<event>
13      3 +1.4674046e+01 1.00728800e+03 7.54677100e-03 9.72987100e-02
       21 -1    0    0  502  503 +0.0000000000e+00 +0.0000000000e+00 +1.5800538667e+03 1.5800538667e+03 0.0000000000e+00 0.0000e+00 -1.0000e+00
        1 -1    0    0  501    0 -0.0000000000e+00 -0.0000000000e+00 -3.6882063846e+03 3.6882063846e+03 0.0000000000e+00 0.0000e+00 1.0000e+00
        6  2    1    2  501    0 -1.5537361959e+02 +4.7079791409e+01 -6.8082471793e+02 7.2134067690e+02 1.7450675394e+02 0.0000e+00 0.0000e+00
       24  2    3    3    0    0 -1.7010618347e+02 +7.5621722793e+01 -6.1812731594e+02 6.5073795384e+02 8.1998458815e+01 0.0000e+00 0.0000e+00
      -24  2    1    2    0    0 +2.1484188186e+02 +3.7342837672e+02 +4.0329831334e+02 5.9530779347e+02 7.8332960367e+01 0.0000e+00 0.0000e+00
        5  1    3    3  501    0 +1.4732563880e+01 -2.8541931385e+01 -6.2697401996e+01 7.0602723055e+01 4.7000000000e+00 0.0000e+00 -1.0000e+00
      -13  1    4    4    0    0 -1.3308769236e+02 +8.9394929602e+01 -5.3839279076e+02 5.6175669506e+02 0.0000000000e+00 0.0000e+00 1.0000e+00
       14  1    4    4    0    0 -3.7018491112e+01 -1.3773206808e+01 -7.9734525176e+01 8.8981258785e+01 0.0000000000e+00 0.0000e+00 -1.0000e+00
       -5  1    1    2    0  504 -1.0022390929e+02 -4.0901425904e+02 -1.3859148308e+02 4.4335898015e+02 4.7000000000e+00 0.0000e+00 1.0000e+00
       13  1    5    5    0    0 +8.8928384609e+00 +6.1240839862e+01 +3.8641807427e+01 7.2956921016e+01 0.0000000000e+00 0.0000e+00 -1.0000e+00
      -14  1    5    5    0    0 +2.0594904340e+02 +3.1218753686e+02 +3.6465650592e+02 5.2235087245e+02 0.0000000000e+00 0.0000e+00 1.0000e+00
       21  1    1    2  504  503 +4.2506352172e+00 -2.3258403907e+01 +9.0781371953e+02 9.0812156158e+02 0.0000000000e+00 0.0000e+00 -1.0000e+00
        1  1    1    2  502    0 +3.6505011799e+01 +1.1764494823e+01 -2.5998483498e+03 2.6001312392e+03 0.0000000000e+00 0.0000e+00 1.0000e+00
<mgrwt>
<rscale>  4 0.69265817E+03</rscale>
<asrwt>0</asrwt>
<pdfrwt beam="1">  1       21 0.24308521E+00 0.10072878E+04</pdfrwt>
<pdfrwt beam="2">  1        1 0.56741637E+00 0.10072878E+04</pdfrwt>
<totfact> 0.10570042E-01</totfact>
</mgrwt>
</event>
<event>
13      2 +1.4674046e+01 2.69058700e+02 7.54677100e-03 1.10182000e-01
       21 -1    0    0  502  503 +0.0000000000e+00 +0.0000000000e+00 +1.3192700760e+02 1.3192700760e+02 0.0000000000e+00 0.0000e+00 -1.0000e+00
        1 -1    0    0  501    0 -0.0000000000e+00 -0.0000000000e+00 -6.4345180754e+02 6.4345180754e+02 0.0000000000e+00 0.0000e+00 1.0000e+00
        6  2    1    2  501    0 +6.5697359065e+01 -1.8154612621e+02 -2.9955621905e+02 3.9625900032e+02 1.7324008784e+02 0.0000e+00 0.0000e+00
       24  2    3    3    0    0 +1.0116926444e+02 -9.4394639236e+01 -2.2725322242e+02 2.7750104870e+02 7.8849457483e+01 0.0000e+00 0.0000e+00
       -6  2    1    2    0  503 -6.8800718439e+01 +2.1045426516e+02 -2.0353029309e+02 3.4884579893e+02 1.7676050081e+02 0.0000e+00 0.0000e+00
      -24  2    5    5    0    0 -2.9037467024e+01 +1.5566631462e+02 -5.5183903948e+01 1.8571524735e+02 7.9810487067e+01 0.0000e+00 0.0000e+00
        5  1    3    3  501    0 -3.5471905370e+01 -8.7151486972e+01 -7.2302996629e+01 1.1875795162e+02 4.7000000000e+00 0.0000e+00 -1.0000e+00
      -13  1    4    4    0    0 +6.6032323551e+01 -9.5469688264e+01 -1.3100667164e+02 1.7503564536e+02 0.0000000000e+00 0.0000e+00 1.0000e+00
       14  1    4    4    0    0 +3.5136940884e+01 +1.0750490276e+00 -9.6246550783e+01 1.0246540335e+02 0.0000000000e+00 0.0000e+00 -1.0000e+00
       -5  1    5    5    0  503 -3.9763251414e+01 +5.4787950541e+01 -1.4834638914e+02 1.6313055158e+02 4.7000000000e+00 0.0000e+00 1.0000e+00
       13  1    6    6    0    0 +2.5444790399e+01 +4.2331247069e+01 -2.7360339486e+00 4.9465722663e+01 0.0000000000e+00 0.0000e+00 -1.0000e+00
      -14  1    6    6    0    0 -5.4482257423e+01 +1.1333506755e+02 -5.2447870000e+01 1.3624952469e+02 0.0000000000e+00 0.0000e+00 1.0000e+00
        1  1    1    2  502    0 +3.1033593738e+00 -2.8908138950e+01 -8.4382877888e+00 3.0274015885e+01 0.0000000000e+00 0.0000e+00 1.0000e+00
<mgrwt>
<rscale>  3 0.26905873E+03</rscale>
<asrwt>0</asrwt>
<pdfrwt beam="1">  1       21 0.20296463E-01 0.26905873E+03</pdfrwt>
<pdfrwt beam="2">  1        1 0.98992584E-01 0.26905873E+03</pdfrwt>
<totfact> 0.78017462E+03</totfact>
</mgrwt>
</event>
<event>
12      1 +1.4674046e+01 1.99933300e+02 7.54677100e-03 1.15039300e-01
       21 -1    0    0  501  502 +0.0000000000e+00 +0.0000000000e+00 +1.9504725389e+02 1.9504725389e+02 0.0000000000e+00 0.0000e+00 -1.0000e+00
       21 -1    0    0  502  503 -0.0000000000e+00 -0.0000000000e+00 -2.0355404394e+02 2.0355404394e+02 0.0000000000e+00 0.0000e+00 -1.0000e+00
        6  2    1    2  501    0 -4.0374266260e+01 +8.6980239303e+01 +1.2718214020e+01 2.0033742932e+02 1.7543571248e+02 0.0000e+00 0.0000e+00
       24  2    3    3    0    0 +4.2003548683e+01 +5.9545916212e+01 +2.6123779132e+01 1.1235705847e+02 8.1434897386e+01 0.0000e+00 0.0000e+00
       -6  2    1    2    0  503 +4.0374266260e+01 -8.6980239303e+01 -2.1225004067e+01 1.9826386852e+02 1.7222780657e+02 0.0000e+00 0.0000e+00
      -24  2    5    5    0    0 -3.5877063197e+01 -6.0504737683e+01 -4.2374371023e+01 1.1468993028e+02 8.0063761103e+01 0.0000e+00 0.0000e+00
        5  1    3    3  501    0 -8.2377814943e+01 +2.7434323091e+01 -1.3405565112e+01 8.7980370846e+01 4.7000000000e+00 0.0000e+00 -1.0000e+00
      -13  1    4    4    0    0 +8.2906092337e+00 +6.9582057985e+00 +4.5645684499e+01 4.6911398857e+01 0.0000000000e+00 0.0000e+00 1.0000e+00
       14  1    4    4    0    0 +3.3712939449e+01 +5.2587710414e+01 -1.9521905367e+01 6.5445659612e+01 0.0000000000e+00 0.0000e+00 -1.0000e+00
       -5  1    5    5    0  503 +7.6251329457e+01 -2.6475501620e+01 +2.1149366956e+01 8.3573938238e+01 4.7000000000e+00 0.0000e+00 1.0000e+00
       13  1    6    6    0    0 -3.0194959586e+01 -6.0641530567e+01 +4.1020986671e+00 6.7867208779e+01 0.0000000000e+00 0.0000e+00 -1.0000e+00
      -14  1    6    6    0    0 -5.6821036112e+00 +1.3679288419e-01 -4.6476469691e+01 4.6822721500e+01 0.0000000000e+00 0.0000e+00 1.0000e+00
<mgrwt>
<rscale>  2 0.19922738E+03</rscale>
<asrwt>0</asrwt>
<pdfrwt beam="1">  1       21 0.30007270E-01 0.19993332E+03</pdfrwt>
<pdfrwt beam="2">  1       21 0.31316007E-01 0.19993332E+03</pdfrwt>
<totfact> 0.10406755E+05</totfact>
</mgrwt>
</event>
<event>
13      2 +1.4674046e+01 2.19041600e+02 7.54677100e-03 1.13836400e-01
       21 -1    0    0  504  502 +0.0000000000e+00 +0.0000000000e+00 +7.0620881138e+02 7.0620881138e+02 0.0000000000e+00 0.0000e+00 1.0000e+00
       21 -1    0    0  502  503 -0.0000000000e+00 -0.0000000000e+00 -7.6621714863e+01 7.6621714863e+01 0.0000000000e+00 0.0000e+00 1.0000e+00
       -6  2    1    2    0  503 -5.1986439753e+01 -8.5236270232e+01 +1.5640152179e+02 2.6914801050e+02 1.9496513498e+02 0.0000e+00 0.0000e+00
      -24  2    3    3    0    0 -8.3183279207e+01 -4.1216131807e+00 +1.3818087412e+02 1.8022718964e+02 8.0320858305e+01 0.0000e+00 0.0000e+00
        6  2    1    2  504    0 +5.1986439753e+01 +8.5236270232e+01 +4.7318557473e+02 5.1368251574e+02 1.7319736479e+02 0.0000e+00 0.0000e+00
       24  2    5    5    0    0 -2.0965230308e+00 +3.5079579176e+01 +1.6092300966e+02 1.8301626486e+02 7.9773215311e+01 0.0000e+00 0.0000e+00
        5  1    5    5  501    0 -1.8705583361e+00 +4.2106524273e+01 +6.9571624100e+01 8.1478581571e+01 4.7000000000e+00 0.0000e+00 -1.0000e+00
      -13  1    6    6    0    0 -3.0749142573e+01 +1.5595861009e+01 +1.3608301489e+02 1.4038278951e+02 0.0000000000e+00 0.0000e+00 1.0000e+00
       14  1    6    6    0    0 +2.8652619542e+01 +1.9483718167e+01 +2.4839994777e+01 4.2633475354e+01 0.0000000000e+00 0.0000e+00 -1.0000e+00
       -5  1    3    3    0  503 +3.1196839454e+01 -8.1114657051e+01 +1.8220647671e+01 8.8920820858e+01 4.7000000000e+00 0.0000e+00 1.0000e+00
       13  1    4    4    0    0 -9.3790369073e+00 -2.5656858909e+01 +7.7837920456e+01 8.2492318450e+01 0.0000000000e+00 0.0000e+00 -1.0000e+00
      -14  1    4    4    0    0 -7.3804242300e+01 +2.1535245729e+01 +6.0342953665e+01 9.7734871193e+01 0.0000000000e+00 0.0000e+00 1.0000e+00
       21  1    5    5  504  501 +5.5953521120e+01 +8.0501667835e+00 +2.4269094096e+02 2.4918766931e+02 0.0000000000e+00 0.0000e+00 -1.0000e+00
<mgrwt>
<rscale>  3 0.21409429E+03</rscale>
<asrwt>0</asrwt>
<pdfrwt beam="1">  1       21 0.10864750E+00 0.21904158E+03</pdfrwt>
<pdfrwt beam="2">  1       21 0.11787957E-01 0.21904158E+03</pdfrwt>
<totfact> 0.40200629E+04</totfact>
</mgrwt>
</event>
<event>
13      2 +1.4674046e+01 1.93572400e+02 7.54677100e-03 1.15543500e-01
       21 -1    0    0  504  502 +0.0000000000e+00 +0.0000000000e+00 +1.9344924660e+02 1.9344924660e+02 0.0000000000e+00 0.0000e+00 -1.0000e+00
       21 -1    0    0  501  503 -0.0000000000e+00 -0.0000000000e+00 -1.7223185492e+03 1.7223185492e+03 0.0000000000e+00 0.0000e+00 -1.0000e+00
        6  2    1    2  501    0 -8.0971211828e+01 +5.7606695549e+01 -1.2760661966e+03 1.2917213279e+03 1.7413839983e+02 0.0000e+00 0.0000e+00
       24  2    3    3    0    0 -7.5920901108e+01 +9.6834920207e+01 -1.1519014903e+03 1.1613245352e+03 8.1588281902e+01 0.0000e+00 0.0000e+00
       -6  2    1    2    0  502 +3.8443546084e+01 -3.0695592789e+01 -4.1595563735e+02 4.5330819373e+02 1.7334676405e+02 0.0000e+00 0.0000e+00
      -24  2    5    5    0    0 -1.9604517685e+01 -2.0258231495e+01 -3.6514812057e+02 3.7532095132e+02 8.2084916287e+01 0.0000e+00 0.0000e+00
        5  1    3    3  501    0 -5.0503107198e+00 -3.9228224658e+01 -1.2416470630e+02 1.3039679267e+02 4.7000000000e+00 0.0000e+00 -1.0000e+00
      -13  1    4    4    0    0 -5.5745067294e+01 +1.2476248698e+01 -3.3551331119e+02 3.4034152155e+02 0.0000000000e+00 0.0000e+00 1.0000e+00
       14  1    4    4    0    0 -2.0175833814e+01 +8.4358671509e+01 -8.1638817910e+02 8.2098301365e+02 0.0000000000e+00 0.0000e+00 -1.0000e+00
       -5  1    5    5    0  502 +5.8048063769e+01 -1.0437361294e+01 -5.0807516778e+01 7.7987242413e+01 4.7000000000e+00 0.0000e+00 1.0000e+00
       13  1    6    6    0    0 +2.2282859152e+01 +1.8830293750e+01 -1.0830752595e+02 1.1216784723e+02 0.0000000000e+00 0.0000e+00 -1.0000e+00
      -14  1    6    6    0    0 -4.1887376837e+01 -3.9088525245e+01 -2.5684059462e+02 2.6315310408e+02 0.0000000000e+00 0.0000e+00 1.0000e+00
       21  1    1    2  504  503 +4.2527665744e+01 -2.6911102760e+01 +1.6315253132e+02 1.7073827422e+02 0.0000000000e+00 0.0000e+00 -1.0000e+00
<mgrwt>
<rscale>  3 0.19339420E+03</rscale>
<asrwt>0</asrwt>
<pdfrwt beam="1">  1       21 0.29761423E-01 0.19357241E+03</pdfrwt>
<pdfrwt beam="2">  1       21 0.26497208E+00 0.19357241E+03</pdfrwt>
<totfact> 0.58769226E+02</totfact>
</mgrwt>
</event>
<event>
13      2 +1.4674046e+01 1.79256600e+02 7.54677100e-03 1.16855500e-01
       21 -1    0    0  503  502 +0.0000000000e+00 +0.0000000000e+00 +1.1744238079e+03 1.1744238079e+03 0.0000000000e+00 0.0000e+00 1.0000e+00
       21 -1    0    0  504  503 -0.0000000000e+00 -0.0000000000e+00 -4.5386481352e+01 4.5386481352e+01 0.0000000000e+00 0.0000e+00 1.0000e+00
        6  2    1    2  501    0 -3.9967504613e+01 -2.5550800264e+01 +7.2339677054e+02 7.4520699104e+02 1.7256977446e+02 0.0000e+00 0.0000e+00
       24  2    3    3    0    0 +3.1997479287e+01 +1.8257449943e+01 +2.7508476541e+02 2.8902296498e+02 8.0656512235e+01 0.0000e+00 0.0000e+00
       -6  2    1    2    0  502 +2.2693440244e+01 +4.9498355080e+01 +4.0655771481e+02 4.4506146577e+02 1.7270047323e+02 0.0000e+00 0.0000e+00
      -24  2    5    5    0    0 +2.6186134641e+01 -3.9752649378e+01 +2.1798717554e+02 2.3635382578e+02 7.7966245760e+01 0.0000e+00 0.0000e+00
        5  1    3    3  501    0 -7.1964983900e+01 -4.3808250207e+01 +4.4831200513e+02 4.5618402607e+02 4.7000000000e+00 0.0000e+00 -1.0000e+00
      -13  1    4    4    0    0 -3.6680516205e+00 -2.6318080935e+01 +4.7915552767e+01 5.4790475302e+01 0.0000000000e+00 0.0000e+00 1.0000e+00
       14  1    4    4    0    0 +3.5665530908e+01 +4.4575530879e+01 +2.2716921264e+02 2.3423248968e+02 0.0000000000e+00 0.0000e+00 -1.0000e+00
       -5  1    5    5    0  502 -3.4926943971e+00 +8.9251004458e+01 +1.8857053927e+02 2.0870763999e+02 4.7000000000e+00 0.0000e+00 1.0000e+00
       13  1    6    6    0    0 -2.4704394054e+01 +2.9911028700e+00 +5.8282515328e+01 6.3372749466e+01 0.0000000000e+00 0.0000e+00 -1.0000e+00
      -14  1    6    6    0    0 +5.0890528694e+01 -4.2743752248e+01 +1.5970466021e+02 1.7298107631e+02 0.0000000000e+00 0.0000e+00 1.0000e+00
       21  1    1    2  504  501 +1.7274064370e+01 -2.3947554816e+01 -9.1715883618e-01 2.9541832405e+01 0.0000000000e+00 0.0000e+00 1.0000e+00
<mgrwt>
<rscale>  3 0.17922508E+03</rscale>
<asrwt>0</asrwt>
<pdfrwt beam="1">  1       21 0.18068056E+00 0.17925657E+03</pdfrwt>
<pdfrwt beam="2">  1       21 0.69825365E-02 0.17925657E+03</pdfrwt>
<totfact> 0.27605531E+04</totfact>
</mgrwt>
</event>
<event>
12      1 +1.4674046e+01 1.76176000e+02 7.54677100e-03 1.17248500e-01
       21 -1    0    0  501  502 +0.0000000000e+00 +0.0000000000e+00 +1.4358921031e+02 1.4358921031e+02 0.0000000000e+00 0.0000e+00 1.0000e+00
       21 -1    0    0  502  503 -0.0000000000e+00 -0.0000000000e+00 -2.5475161107e+02 2.5475161107e+02 0.0000000000e+00 0.0000e+00 1.0000e+00
       -6  2    1    2    0  503 +1.4533887590e+01 -5.0070211130e+00 -1.3798847561e+02 2.2378294998e+02 1.7550408871e+02 0.0000e+00 0.0000e+00
      -24  2    3    3    0    0 -5.1544635954e+01 -3.6967979795e+01 -6.6739724281e+01 1.2138007542e+02 7.9091408418e+01 0.0000e+00 0.0000e+00
        6  2    1    2  501    0 -1.4533887590e+01 +5.0070211130e+00 +2.6826074846e+01 1.7455787140e+02 1.7179786968e+02 0.0000e+00 0.0000e+00
       24  2    5    5    0    0 -3.1967596046e+01 +4.2055836550e+01 +6.7288129269e+01 1.1680134134e+02 7.9525092981e+01 0.0000e+00 0.0000e+00
        5  1    5    5  501    0 +1.7433708456e+01 -3.7048815437e+01 -4.0462054424e+01 5.7756530055e+01 4.7000000000e+00 0.0000e+00 -1.0000e+00
      -13  1    6    6    0    0 -9.8707832307e+00 +3.2189454309e+01 -1.0554097605e+01 3.5284306803e+01 0.0000000000e+00 0.0000e+00 1.0000e+00
       14  1    6    6    0    0 -2.2096812815e+01 +9.8663822410e+00 +7.7842226875e+01 8.1517034538e+01 0.0000000000e+00 0.0000e+00 -1.0000e+00
       -5  1    3    3    0  503 +6.6078523543e+01 +3.1960958682e+01 -7.1248751326e+01 1.0240287456e+02 4.7000000000e+00 0.0000e+00 1.0000e+00
       13  1    4    4    0    0 -2.5183427298e+01 -1.9242167465e+01 +1.3976142003e+01 3.4638108559e+01 0.0000000000e+00 0.0000e+00 -1.0000e+00
      -14  1    4    4    0    0 -2.6361208656e+01 -1.7725812330e+01 -8.0715866285e+01 8.6741966859e+01 0.0000000000e+00 0.0000e+00 1.0000e+00
<mgrwt>
<rscale>  2 0.17524573E+03</rscale>
<asrwt>0</asrwt>
<pdfrwt beam="1">  1       21 0.22090648E-01 0.17617602E+03</pdfrwt>
<pdfrwt beam="2">  1       21 0.39192555E-01 0.17617602E+03</pdfrwt>
<totfact> 0.12092210E+05</totfact>
</mgrwt>
</event>
<event>
13      2 +1.4674046e+01 2.05377600e+02 7.54677100e-03 1.14746400e-01
       21 -1    0    0  501  502 +0.0000000000e+00 +0.0000000000e+00 +1.4500947249e+02 1.4500947249e+02 0.0000000000e+00 0.0000e+00 1.0000e+00
       21 -1    0    0  504  503 -0.0000000000e+00 -0.0000000000e+00 -1.3316176834e+03 1.3316176834e+03 0.0000000000e+00 0.0000e+00 1.0000e+00
       -6  2    1    2    0  503 -5.6381001876e+01 -1.3886945491e+01 -4.9630046694e+01 2.0020149838e+02 1.8505629897e+02 0.0000e+00 0.0000e+00
      -24  2    3    3    0    0 +4.2399714344e+01 -2.5523161916e+01 -2.3946347332e+01 9.7367778991e+01 8.0360993427e+01 0.0000e+00 0.0000e+00
        6  2    1    2  501    0 +9.2553256609e+01 -3.2772774809e+00 -1.1921533259e+03 1.2082542484e+03 1.7341260187e+02 0.0000e+00 0.0000e+00
       24  2    5    5    0    0 -7.4030425828e+00 -3.1231936142e+01 -3.5991943013e+02 3.6955998233e+02 7.7474805444e+01 0.0000e+00 0.0000e+00
        5  1    5    5  501    0 +9.9956299191e+01 +2.7954658661e+01 -8.3223389577e+02 8.3869426608e+02 4.7000000000e+00 0.0000e+00 -1.0000e+00
      -13  1    6    6    0    0 +1.6742828694e+01 +1.9863099076e+01 -1.4647577453e+02 1.4876161313e+02 0.0000000000e+00 0.0000e+00 1.0000e+00
       14  1    6    6    0    0 -2.4145871276e+01 -5.1095035218e+01 -2.1344365560e+02 2.2079836920e+02 0.0000000000e+00 0.0000e+00 -1.0000e+00
       -5  1    3    3    0  503 -9.8780716220e+01 +1.1636216425e+01 -2.5683699362e+01 1.0283371939e+02 4.7000000000e+00 0.0000e+00 1.0000e+00
       13  1    4    4    0    0 -1.3679007917e+00 +2.0649339433e+01 +1.2372353718e+01 2.4111024618e+01 0.0000000000e+00 0.0000e+00 -1.0000e+00
      -14  1    4    4    0    0 +4.3767615135e+01 -4.6172501349e+01 -3.6318701049e+01 7.3256754374e+01 0.0000000000e+00 0.0000e+00 1.0000e+00
       21  1    1    2  504  502 -3.6172254732e+01 +1.7164222972e+01 +5.5175161644e+01 6.8171409147e+01 0.0000000000e+00 0.0000e+00 1.0000e+00
<mgrwt>
<rscale>  3 0.20271989E+03</rscale>
<asrwt>0</asrwt>
<pdfrwt beam="1">  1       21 0.22309150E-01 0.20537758E+03</pdfrwt>
<pdfrwt beam="2">  1       21 0.20486426E+00 0.20537758E+03</pdfrwt>
<totfact> 0.23203289E+03</totfact>
</mgrwt>
</event>
<event>
13      3 +1.4674046e+01 6.61017500e+02 7.54677100e-03 1.00015500e-01
        1 -1    0    0  502    0 -0.0000000000e+00 +0.0000000000e+00 +6.7584250223e+02 6.7584250223e+02 0.0000000000e+00 0.0000e+00 -1.0000e+00
        2 -1    0    0  501    0 +0.0000000000e+00 -0.0000000000e+00 -1.3578258879e+03 1.3578258879e+03 0.0000000000e+00 0.0000e+00 1.0000e+00
        6  2    1    2  501    0 +1.9132457358e+01 -2.9548142627e+02 -2.7183030718e+02 4.3761216078e+02 1.7302416931e+02 0.0000e+00 0.0000e+00
       24  2    3    3    0    0 -2.9162246020e+01 -7.4189329559e+01 -1.2005582775e+02 1.6492157963e+02 8.0194965163e+01 0.0000e+00 0.0000e+00
      -24  2    1    2    0    0 +2.9362947383e+02 +1.9839450775e+02 +1.6792202969e+01 3.6348951618e+02 7.9145446395e+01 0.0000e+00 0.0000e+00
        5  1    3    3  501    0 +4.8294703378e+01 -2.2129209671e+02 -1.5177447943e+02 2.7269058115e+02 4.7000000000e+00 0.0000e+00 -1.0000e+00
      -13  1    4    4    0    0 +1.9635412292e+01 +4.0511552556e+00 -2.9601301446e+01 3.5751899559e+01 0.0000000000e+00 0.0000e+00 1.0000e+00
       14  1    4    4    0    0 -4.8797658311e+01 -7.8240484815e+01 -9.0454526301e+01 1.2916968007e+02 0.0000000000e+00 0.0000e+00 -1.0000e+00
       -5  1    1    2    0  503 -2.7541664775e+02 +5.2694185391e+01 -6.0304496579e+01 2.8686186457e+02 4.7000000000e+00 0.0000e+00 1.0000e+00
       13  1    5    5    0    0 +2.2008143960e+02 +1.0760314255e+02 +2.5614074244e+01 2.4631353422e+02 0.0000000000e+00 0.0000e+00 -1.0000e+00
      -14  1    5    5    0    0 +7.3548034229e+01 +9.0791365203e+01 -8.8218712749e+00 1.1717598196e+02 0.0000000000e+00 0.0000e+00 1.0000e+00
        2  1    1    2  502    0 -2.5225883053e+01 +1.6137628063e+01 -6.5501358785e+02 6.5569777221e+02 0.0000000000e+00 0.0000e+00 1.0000e+00
        1  1    1    2  503    0 -1.2119400379e+01 +2.8255105065e+01 +2.8837280301e+02 2.9000707636e+02 0.0000000000e+00 0.0000e+00 -1.0000e+00
<mgrwt>
<rscale>  4 0.55582126E+03</rscale>
<asrwt>0</asrwt>
<pdfrwt beam="2">  1        2 0.20889629E+00 0.66101752E+03</pdfrwt>
<pdfrwt beam="1">  1        1 0.10397577E+00 0.66101752E+03</pdfrwt>
<totfact> 0.60817010E+01</totfact>
</mgrwt>
</event>
<event>
12      1 +1.4674046e+01 2.37792900e+02 7.54677100e-03 1.12149300e-01
       21 -1    0    0  503  502 +0.0000000000e+00 +0.0000000000e+00 +6.9710866403e+01 6.9710866403e+01 0.0000000000e+00 0.0000e+00 -1.0000e+00
       21 -1    0    0  501  503 -0.0000000000e+00 -0.0000000000e+00 -1.1478698298e+03 1.1478698298e+03 0.0000000000e+00 0.0000e+00 1.0000e+00
        6  2    1    2  501    0 +1.5212585702e+02 +5.3949102116e+01 -8.6994142040e+02 9.0151110766e+02 1.7283350460e+02 0.0000e+00 0.0000e+00
       24  2    3    3    0    0 +1.0251354587e+02 +2.4041647192e+01 -2.6537845614e+02 2.9416087507e+02 7.0836908095e+01 0.0000e+00 0.0000e+00
       -6  2    1    2    0  502 -1.5212585702e+02 -5.3949102116e+01 -2.0821754303e+02 3.1606958858e+02 1.7462146949e+02 0.0000e+00 0.0000e+00
      -24  2    5    5    0    0 -2.1255491902e+01 +1.2277736608e+01 -4.0545636497e+01 9.3249022037e+01 8.0304998099e+01 0.0000e+00 0.0000e+00
        5  1    3    3  501    0 +4.9612311147e+01 +2.9907454924e+01 -6.0456296426e+02 6.0735023259e+02 4.7000000000e+00 0.0000e+00 -1.0000e+00
      -13  1    4    4    0    0 +1.1020809046e+02 +1.0904770043e+01 -2.4355812981e+02 2.6755429320e+02 0.0000000000e+00 0.0000e+00 1.0000e+00
       14  1    4    4    0    0 -7.6945445823e+00 +1.3136877149e+01 -2.1820326333e+01 2.6606581871e+01 0.0000000000e+00 0.0000e+00 -1.0000e+00
       -5  1    5    5    0  502 -1.3087036512e+02 -6.6226838724e+01 -1.6767190654e+02 2.2282056654e+02 4.7000000000e+00 0.0000e+00 1.0000e+00
       13  1    6    6    0    0 -1.9888662512e+01 -1.0533863794e+01 -5.9464808093e+01 6.3581322608e+01 0.0000000000e+00 0.0000e+00 -1.0000e+00
      -14  1    6    6    0    0 -1.3668293902e+00 +2.2811600402e+01 +1.8919171597e+01 2.9667699429e+01 0.0000000000e+00 0.0000e+00 1.0000e+00
<mgrwt>
<rscale>  2 0.23746471E+03</rscale>
<asrwt>0</asrwt>
<pdfrwt beam="1">  1       21 0.10724748E-01 0.23779285E+03</pdfrwt>
<pdfrwt beam="2">  1       21 0.17659536E+00 0.23779285E+03</pdfrwt>
<totfact> 0.13329613E+04</totfact>
</mgrwt>
</event>
<event>
13      2 +1.4674046e+01 2.79088600e+02 7.54677100e-03 1.09630000e-01
       21 -1    0    0  504  502 +0.0000000000e+00 +0.0000000000e+00 +5.3035505924e+02 5.3035505924e+02 0.0000000000e+00 0.0000e+00 1.0000e+00
       21 -1    0    0  501  503 -0.0000000000e+00 -0.0000000000e+00 -2.6322682355e+02 2.6322682355e+02 0.0000000000e+00 0.0000e+00 -1.0000e+00
        6  2    1    2  501    0 -1.9463374789e+02 +9.6679065032e+01 -1.1829695887e+02 3.0188888189e+02 1.7295545409e+02 0.0000e+00 0.0000e+00
       24  2    3    3    0    0 -8.7318438929e+01 +1.4025804849e+01 -1.1542728997e+02 1.6632169576e+02 8.0735458333e+01 0.0000e+00 0.0000e+00
       -6  2    1    2    0  502 +2.0786365224e+02 -7.7689479457e+01 +3.5641311061e+02 4.5458052665e+02 1.7427046981e+02 0.0000e+00 0.0000e+00
      -24  2    5    5    0    0 +9.3845764813e+01 -1.0098034359e+02 +1.5374301834e+02 2.2082895059e+02 7.8258880432e+01 0.0000e+00 0.0000e+00
        5  1    3    3  501    0 -1.0731530896e+02 +8.2653260184e+01 -2.8696689016e+00 1.3556718613e+02 4.7000000000e+00 0.0000e+00 -1.0000e+00
      -13  1    4    4    0    0 -3.6850997866e+01 -2.8060888476e+01 -1.9988341805e+01 5.0447431193e+01 0.0000000000e+00 0.0000e+00 1.0000e+00
       14  1    4    4    0    0 -5.0467441063e+01 +4.2086693325e+01 -9.5438948164e+01 1.1587426457e+02 0.0000000000e+00 0.0000e+00 -1.0000e+00
       -5  1    5    5    0  502 +1.1401788743e+02 +2.3290864136e+01 +2.0267009227e+02 2.3375157605e+02 4.7000000000e+00 0.0000e+00 1.0000e+00
       13  1    6    6    0    0 +8.4122886071e+01 -3.4578976645e+01 +8.0110737355e+01 1.2120270552e+02 0.0000000000e+00 0.0000e+00 -1.0000e+00
      -14  1    6    6    0    0 +9.7228787420e+00 -6.6401366948e+01 +7.3632280985e+01 9.9626245070e+01 0.0000000000e+00 0.0000e+00 1.0000e+00
       21  1    1    2  504  503 -1.3229904355e+01 -1.8989585575e+01 +2.9012083954e+01 3.7112474249e+01 0.0000000000e+00 0.0000e+00 1.0000e+00
<mgrwt>
<rscale>  3 0.27888356E+03</rscale>
<asrwt>0</asrwt>
<pdfrwt beam="1">  1       21 0.81593086E-01 0.27908860E+03</pdfrwt>
<pdfrwt beam="2">  1       21 0.40496434E-01 0.27908860E+03</pdfrwt>
<totfact> 0.73220894E+03</totfact>
</mgrwt>
</event>
<event>
12      1 +1.4674046e+01 1.75946000e+02 7.54677100e-03 1.17178500e-01
       -1 -1    0    0    0  501 -0.0000000000e+00 +0.0000000000e+00 +1.4689775689e+01 1.4689775689e+01 0.0000000000e+00 0.0000e+00 -1.0000e+00
        1 -1    0    0  502    0 +0.0000000000e+00 -0.0000000000e+00 -2.1722927827e+03 2.1722927827e+03 0.0000000000e+00 0.0000e+00 1.0000e+00
        6  2    1    2  502    0 +1.8402366522e+01 +3.9922628590e+01 -8.9602953044e+02 9.1334068352e+02 1.7143459799e+02 0.0000e+00 0.0000e+00
       24  2    3    3    0    0 -2.5002225674e+01 +1.5049826924e+01 -2.0079023013e+02 2.1628803875e+02 7.4914555408e+01 0.0000e+00 0.0000e+00
       -6  2    1    2    0  501 -1.8402366522e+01 -3.9922628590e+01 -1.2615734766e+03 1.2736418749e+03 1.6930305746e+02 0.0000e+00 0.0000e+00
      -24  2    5    5    0    0 -3.5691392054e+01 +9.5595587681e+00 -1.1025068960e+03 1.1060958683e+03 8.1002181848e+01 0.0000e+00 0.0000e+00
        5  1    3    3  502    0 +4.3404592196e+01 +2.4872801666e+01 -6.9523930031e+02 6.9705264477e+02 4.7000000000e+00 0.0000e+00 -1.0000e+00
      -13  1    4    4    0    0 +2.2163814168e+01 -1.1972034516e+01 -7.8963770269e+01 8.2884505693e+01 0.0000000000e+00 0.0000e+00 1.0000e+00
       14  1    4    4    0    0 -4.7166039842e+01 +2.7021861439e+01 -1.2182645986e+02 1.3340353306e+02 0.0000000000e+00 0.0000e+00 -1.0000e+00
       -5  1    5    5    0  501 +1.7289025532e+01 -4.9482187358e+01 -1.5906658056e+02 1.6754600658e+02 4.7000000000e+00 0.0000e+00 1.0000e+00
       13  1    6    6    0    0 -1.5104732861e+01 -2.4995788048e+01 -1.5450335194e+02 1.5723939753e+02 0.0000000000e+00 0.0000e+00 -1.0000e+00
      -14  1    6    6    0    0 -2.0586659194e+01 +3.4555346816e+01 -9.4800354410e+02 9.4885647079e+02 0.0000000000e+00 0.0000e+00 1.0000e+00
<mgrwt>
<rscale>  2 0.17594603E+03</rscale>
<asrwt>0</asrwt>
<pdfrwt beam="2">  1        1 0.33419888E+00 0.17594603E+03</pdfrwt>
<pdfrwt beam="1">  1       -1 0.22599656E-02 0.17594603E+03</pdfrwt>
<totfact> 0.15022296E+03</totfact>
</mgrwt>
</event>
<event>
13      2 +1.4674046e+01 2.33246900e+02 7.54677100e-03 1.12439200e-01
       21 -1    0    0  504  502 +0.0000000000e+00 +0.0000000000e+00 +5.4858055451e+02 5.4858055451e+02 0.0000000000e+00 0.0000e+00 1.0000e+00
       21 -1    0    0  502  503 -0.0000000000e+00 -0.0000000000e+00 -1.8080763242e+02 1.8080763242e+02 0.0000000000e+00 0.0000e+00 -1.0000e+00
       -6  2    1    2    0  503 +5.9018043147e+01 +1.4577756187e+02 +3.9074356667e+01 2.3700179246e+02 1.7294165871e+02 0.0000e+00 0.0000e+00
      -24  2    3    3    0    0 +5.4553486082e+01 +1.7552993752e+02 +4.5556162818e+01 2.0586917391e+02 8.0745965757e+01 0.0000e+00 0.0000e+00
        6  2    1    2  501    0 -7.6858729520e+01 -1.3610587263e+02 +8.5285543238e+01 2.4812888479e+02 1.7280696374e+02 0.0000e+00 0.0000e+00
       24  2    5    5    0    0 -2.1742976596e+01 -1.0791520401e+00 +1.8809124853e+01 8.7781868314e+01 8.2933416827e+01 0.0000e+00 0.0000e+00
        5  1    5    5  501    0 -5.5115752925e+01 -1.3502672059e+02 +6.6476418386e+01 1.6034701648e+02 4.7000000000e+00 0.0000e+00 -1.0000e+00
      -13  1    6    6    0    0 +1.6964881183e+01 +2.3429426595e+01 +2.8877964315e+01 4.0873977628e+01 0.0000000000e+00 0.0000e+00 1.0000e+00
       14  1    6    6    0    0 -3.8707857779e+01 -2.4508578635e+01 -1.0068839462e+01 4.6907890687e+01 0.0000000000e+00 0.0000e+00 -1.0000e+00
       -5  1    3    3    0  503 +4.4645570654e+00 -2.9752375652e+01 -6.4818061516e+00 3.1132618549e+01 4.7000000000e+00 0.0000e+00 1.0000e+00
       13  1    4    4    0    0 +6.4820740480e+01 +9.0376627477e+01 +4.5321712900e+01 1.2009879621e+02 0.0000000000e+00 0.0000e+00 -1.0000e+00
      -14  1    4    4    0    0 -1.0267254399e+01 +8.5153310044e+01 +2.3444991816e-01 8.5770377702e+01 0.0000000000e+00 0.0000e+00 1.0000e+00
       21  1    1    2  504  501 +1.7840686373e+01 -9.6716892438e+00 +2.4341302219e+02 2.4425750968e+02 0.0000000000e+00 0.0000e+00 1.0000e+00
<mgrwt>
<rscale>  3 0.23322197E+03</rscale>
<asrwt>0</asrwt>
<pdfrwt beam="1">  1       21 0.84397008E-01 0.23324694E+03</pdfrwt>
<pdfrwt beam="2">  1       21 0.27816559E-01 0.23324694E+03</pdfrwt>
<totfact> 0.14659855E+04</totfact>
</mgrwt>
</event>
<event>
12      1 +1.4674046e+01 2.15786400e+02 7.54677100e-03 1.13714200e-01
       21 -1    0    0  503  502 +0.0000000000e+00 +0.0000000000e+00 +2.0996915885e+03 2.0996915885e+03 0.0000000000e+00 0.0000e+00 -1.0000e+00
       21 -1    0    0  501  503 -0.0000000000e+00 -0.0000000000e+00 -2.2893572155e+01 2.2893572155e+01 0.0000000000e+00 0.0000e+00 -1.0000e+00
        6  2    1    2  501    0 +5.8225444745e+01 +1.1474833868e+02 +1.2306714823e+03 1.2493762146e+03 1.7271723892e+02 0.0000e+00 0.0000e+00
       24  2    3    3    0    0 +9.7823474854e+01 +1.1965277721e+02 +9.8178927601e+02 9.9727206923e+02 8.2189891413e+01 0.0000e+00 0.0000e+00
       -6  2    1    2    0  502 -5.8225444745e+01 -1.1474833868e+02 +8.4612653407e+02 8.7320894608e+02 1.7322346321e+02 0.0000e+00 0.0000e+00
      -24  2    5    5    0    0 +9.0430395565e+00 -1.4548598414e+01 +1.7910857743e+02 1.9534459283e+02 7.6067004392e+01 0.0000e+00 0.0000e+00
        5  1    3    3  501    0 -3.9598030109e+01 -4.9044385292e+00 +2.4888220626e+02 2.5210414534e+02 4.7000000000e+00 0.0000e+00 -1.0000e+00
      -13  1    4    4    0    0 +4.6494686292e+01 +1.0873590914e+01 +1.6844426766e+02 1.7508130151e+02 0.0000000000e+00 0.0000e+00 1.0000e+00
       14  1    4    4    0    0 +5.1328788562e+01 +1.0877918630e+02 +8.1334500836e+02 8.2219076772e+02 0.0000000000e+00 0.0000e+00 -1.0000e+00
       -5  1    5    5    0  502 -6.7268484301e+01 -1.0019974027e+02 +6.6701795664e+02 6.7786435325e+02 4.7000000000e+00 0.0000e+00 1.0000e+00
       13  1    6    6    0    0 -1.9930993916e+01 +1.4684334181e+01 +2.2621176549e+01 3.3534934281e+01 0.0000000000e+00 0.0000e+00 -1.0000e+00
      -14  1    6    6    0    0 +2.8974033472e+01 -2.9232932595e+01 +1.5648740088e+02 1.6180965855e+02 0.0000000000e+00 0.0000e+00 1.0000e+00
<mgrwt>
<rscale>  2 0.21568474E+03</rscale>
<asrwt>0</asrwt>
<pdfrwt beam="1">  1       21 0.32302932E+00 0.21578636E+03</pdfrwt>
<pdfrwt beam="2">  1       21 0.35220897E-02 0.21578636E+03</pdfrwt>
<totfact> 0.11889074E+04</totfact>
</mgrwt>
</event>
<event>
13      2 +1.4674046e+01 1.76909300e+02 7.54677100e-03 1.17102600e-01
       21 -1    0    0  504  502 +0.0000000000e+00 +0.0000000000e+00 +2.1356126088e+02 2.1356126088e+02 0.0000000000e+00 0.0000e+00 -1.0000e+00
       21 -1    0    0  501  503 -0.0000000000e+00 -0.0000000000e+00 -2.1742618239e+02 2.1742618239e+02 0.0000000000e+00 0.0000e+00 -1.0000e+00
        6  2    1    2  501    0 -1.9644652976e+01 +4.7328613435e+01 -4.6149700338e+00 1.8045028016e+02 1.7295980926e+02 0.0000e+00 0.0000e+00
       24  2    3    3    0    0 +4.5455412923e+00 +3.6254050545e+01 -6.5180311458e+01 1.1413239401e+02 8.6271155279e+01 0.0000e+00 0.0000e+00
       -6  2    1    2    0  502 +4.8368511297e+01 +1.7370626761e+01 +3.6322456953e+00 1.7968972999e+02 1.7214515473e+02 0.0000e+00 0.0000e+00
      -24  2    5    5    0    0 +3.5822007421e+01 -5.0364610350e+01 -2.7883794991e+01 1.0378961190e+02 7.8580960317e+01 0.0000e+00 0.0000e+00
        5  1    3    3  501    0 -2.4190194268e+01 +1.1074562891e+01 +6.0565341424e+01 6.6317886153e+01 4.7000000000e+00 0.0000e+00 -1.0000e+00
      -13  1    4    4    0    0 +1.4858726349e+01 +5.2101864787e+01 -9.0843730167e+00 5.4935524900e+01 0.0000000000e+00 0.0000e+00 1.0000e+00
       14  1    4    4    0    0 -1.0313185057e+01 -1.5847814242e+01 -5.6095938441e+01 5.9196869105e+01 0.0000000000e+00 0.0000e+00 -1.0000e+00
       -5  1    5    5    0  502 +1.2546503875e+01 +6.7735237111e+01 +3.1516040686e+01 7.5900118093e+01 4.7000000000e+00 0.0000e+00 1.0000e+00
       13  1    6    6    0    0 +4.4338490114e+01 +2.5911295982e+00 -2.5928510629e+00 4.4489757639e+01 0.0000000000e+00 0.0000e+00 -1.0000e+00
      -14  1    6    6    0    0 -8.5164826921e+00 -5.2955739948e+01 -2.5290943928e+01 5.9299854263e+01 0.0000000000e+00 0.0000e+00 1.0000e+00
       21  1    1    2  504  503 -2.8723858321e+01 -6.4699240196e+01 -2.8821971699e+00 7.0847433117e+01 0.0000000000e+00 0.0000e+00 -1.0000e+00
<mgrwt>
<rscale>  3 0.17670982E+03</rscale>
<asrwt>0</asrwt>
<pdfrwt beam="1">  1       21 0.32855579E-01 0.17690925E+03</pdfrwt>
<pdfrwt beam="2">  1       21 0.33450182E-01 0.17690925E+03</pdfrwt>
<totfact> 0.77255983E+04</totfact>
</mgrwt>
</event>
<event>
12      1 +1.4674046e+01 4.01184400e+02 7.54677100e-03 1.04337000e-01
       -1 -1    0    0    0  501 -0.0000000000e+00 +0.0000000000e+00 +3.7119082925e+02 3.7119082925e+02 0.0000000000e+00 0.0000e+00 1.0000e+00
        1 -1    0    0  502    0 +0.0000000000e+00 -0.0000000000e+00 -8.3789301051e+02 8.3789301051e+02 0.0000000000e+00 0.0000e+00 -1.0000e+00
        6  2    1    2  502    0 +2.8528132104e+02 -2.2116553392e+02 +1.8629938117e+02 4.4317604823e+02 1.7719459578e+02 0.0000e+00 0.0000e+00
       24  2    3    3    0    0 +1.6109731370e+02 -1.4995404441e+02 +1.8723389608e+02 2.9994299605e+02 8.0440718094e+01 0.0000e+00 0.0000e+00
       -6  2    1    2    0  501 -2.8528132104e+02 +2.2116553392e+02 -6.5300156244e+02 7.6590779153e+02 1.7292795913e+02 0.0000e+00 0.0000e+00
      -24  2    5    5    0    0 -1.5567141597e+02 +1.6651063229e+02 -2.9603515531e+02 3.8219827695e+02 8.0494281188e+01 0.0000e+00 0.0000e+00
        5  1    3    3  502    0 +1.2418400734e+02 -7.1211489512e+01 -9.3451490358e-01 1.4323305218e+02 4.7000000000e+00 0.0000e+00 -1.0000e+00
      -13  1    4    4    0    0 +1.1112853427e+02 -1.3535181478e+02 +1.1001992890e+02 2.0681888127e+02 0.0000000000e+00 0.0000e+00 1.0000e+00
       14  1    4    4    0    0 +4.9968779425e+01 -1.4602229623e+01 +7.7213967175e+01 9.3124114782e+01 0.0000000000e+00 0.0000e+00 -1.0000e+00
       -5  1    5    5    0  501 -1.2960990507e+02 +5.4654901629e+01 -3.5696640713e+02 3.8370951458e+02 4.7000000000e+00 0.0000e+00 1.0000e+00
       13  1    6    6    0    0 -3.2655327947e+01 -1.5337303825e+00 -5.1484387619e+01 6.0986596402e+01 0.0000000000e+00 0.0000e+00 -1.0000e+00
      -14  1    6    6    0    0 -1.2301608802e+02 +1.6804436267e+02 -2.4455076769e+02 3.2121168054e+02 0.0000000000e+00 0.0000e+00 1.0000e+00
<mgrwt>
<rscale>  2 0.40118436E+03</rscale>
<asrwt>0</asrwt>
<pdfrwt beam="2">  1        1 0.12890661E+00 0.40118436E+03</pdfrwt>
<pdfrwt beam="1">  1       -1 0.57106283E-01 0.40118436E+03</pdfrwt>
<totfact> 0.67759436E+01</totfact>
</mgrwt>
</event>
<event>
12      1 +1.4674046e+01 2.07426800e+02 7.54677100e-03 1.14390900e-01
       21 -1    0    0  501  502 +0.0000000000e+00 +0.0000000000e+00 +8.1445849563e+01 8.1445849563e+01 0.0000000000e+00 0.0000e+00 -1.0000e+00
       21 -1    0    0  502  503 -0.0000000000e+00 -0.0000000000e+00 -1.0055429337e+03 1.0055429337e+03 0.0000000000e+00 0.0000e+00 -1.0000e+00
       -6  2    1    2    0  503 +9.7252898996e+01 +5.8148389029e+01 -8.3873739416e+02 8.6400596487e+02 1.7374271052e+02 0.0000e+00 0.0000e+00
      -24  2    3    3    0    0 +7.1380810768e+01 +6.8152285772e+01 -8.2091706991e+02 8.3070285908e+02 8.0140190936e+01 0.0000e+00 0.0000e+00
        6  2    1    2  501    0 -9.7252898996e+01 -5.8148389029e+01 -8.5359689927e+01 2.2298281834e+02 1.7203400565e+02 0.0000e+00 0.0000e+00
       24  2    5    5    0    0 +4.1427873463e+00 +6.6869367784e+00 -3.4786366937e+01 9.2351827840e+01 8.5187387389e+01 0.0000e+00 0.0000e+00
        5  1    5    5  501    0 -1.0139568634e+02 -6.4835325808e+01 -5.0573322990e+01 1.3063099050e+02 4.7000000000e+00 0.0000e+00 -1.0000e+00
      -13  1    6    6    0    0 -6.0262561201e+00 +2.2290508634e+01 -5.8095213720e+01 6.2515889141e+01 0.0000000000e+00 0.0000e+00 1.0000e+00
       14  1    6    6    0    0 +1.0169043466e+01 -1.5603571856e+01 +2.3308846783e+01 2.9835938698e+01 0.0000000000e+00 0.0000e+00 -1.0000e+00
       -5  1    3    3    0  503 +2.5872088228e+01 -1.0003896743e+01 -1.7820324253e+01 3.3303105798e+01 4.7000000000e+00 0.0000e+00 1.0000e+00
       13  1    4    4    0    0 +4.3750361304e+01 +5.6138563912e+01 -2.7853415287e+02 2.8748375047e+02 0.0000000000e+00 0.0000e+00 -1.0000e+00
      -14  1    4    4    0    0 +2.7630449464e+01 +1.2013721860e+01 -5.4238291704e+02 5.4321910860e+02 0.0000000000e+00 0.0000e+00 1.0000e+00
<mgrwt>
<rscale>  2 0.20706863E+03</rscale>
<asrwt>0</asrwt>
<pdfrwt beam="1">  1       21 0.12530132E-01 0.20742683E+03</pdfrwt>
<pdfrwt beam="2">  1       21 0.15469890E+00 0.20742683E+03</pdfrwt>
<totfact> 0.14805471E+04</totfact>
</mgrwt>
</event>
<event>
13      2 +1.4674046e+01 2.69136300e+02 7.54677100e-03 1.10200500e-01
       21 -1    0    0  504  502 +0.0000000000e+00 +0.0000000000e+00 +1.0194405365e+03 1.0194405365e+03 0.0000000000e+00 0.0000e+00 -1.0000e+00
       21 -1    0    0  502  503 -0.0000000000e+00 -0.0000000000e+00 -4.8503555276e+02 4.8503555276e+02 0.0000000000e+00 0.0000e+00 -1.0000e+00
        6  2    1    2  501    0 +2.2462950631e+02 +3.5415273952e+01 +3.1795009584e+01 2.8731574840e+02 1.7270425562e+02 0.0000e+00 0.0000e+00
       24  2    3    3    0    0 +1.2727947276e+02 +5.9836333383e+01 +7.4661370768e+01 1.7807732981e+02 7.9729317866e+01 0.0000e+00 0.0000e+00
       -6  2    1    2    0  503 -1.8653026370e+02 -6.6829636493e+01 -3.0747682123e+02 4.0556990812e+02 1.7517195891e+02 0.0000e+00 0.0000e+00
      -24  2    5    5    0    0 -3.0111000368e+01 -3.4008473571e-01 -1.6528853397e+02 1.8392278888e+02 7.4836520534e+01 0.0000e+00 0.0000e+00
        5  1    3    3  501    0 +9.7350033551e+01 -2.4421059431e+01 -4.2866361184e+01 1.0923841860e+02 4.7000000000e+00 0.0000e+00 -1.0000e+00
      -13  1    4    4    0    0 +7.1984965582e+01 +1.9817381128e+01 +8.0226412731e+01 1.0959398325e+02 0.0000000000e+00 0.0000e+00 1.0000e+00
       14  1    4    4    0    0 +5.5294507178e+01 +4.0018952255e+01 -5.5650419638e+00 6.8483346558e+01 0.0000000000e+00 0.0000e+00 -1.0000e+00
       -5  1    5    5    0  503 -1.5641926333e+02 -6.6489551758e+01 -1.4218828726e+02 2.2164711924e+02 4.7000000000e+00 0.0000e+00 1.0000e+00
       13  1    6    6    0    0 -3.8128113828e+01 -9.6112905661e+00 -1.6698233522e+02 1.7154949794e+02 0.0000000000e+00 0.0000e+00 -1.0000e+00
      -14  1    6    6    0    0 +8.0171134607e+00 +9.2712058304e+00 +1.6938012491e+00 1.2373290931e+01 0.0000000000e+00 0.0000e+00 1.0000e+00
       21  1    1    2  504  501 -3.8099242611e+01 +3.1414362542e+01 +8.1008679540e+02 8.1159043275e+02 0.0000000000e+00 0.0000e+00 -1.0000e+00
<mgrwt>
<rscale>  3 0.26873554E+03</rscale>
<asrwt>0</asrwt>
<pdfrwt beam="1">  1       21 0.15683700E+00 0.26913634E+03</pdfrwt>
<pdfrwt beam="2">  1       21 0.74620855E-01 0.26913634E+03</pdfrwt>
<totfact> 0.39546233E+02</totfact>
</mgrwt>
</event>
<event>
12      1 +1.4674046e+01 1.94491600e+02 7.54677100e-03 1.15477900e-01
       21 -1    0    0  501  502 +0.0000000000e+00 +0.0000000000e+00 +5.4461779004e+01 5.4461779004e+01 0.0000000000e+00 0.0000e+00 1.0000e+00
       21 -1    0    0  502  503 -0.0000000000e+00 -0.0000000000e+00 -8.4804622701e+02 8.4804622701e+02 0.0000000000e+00 0.0000e+00 1.0000e+00
       -6  2    1    2    0  503 -4.9956490587e+00 -8.8609392883e+01 -5.9069672643e+02 6.2145565115e+02 1.7148738355e+02 0.0000e+00 0.0000e+00
      -24  2    3    3    0    0 -6.0549566657e+01 -8.6055942424e+01 -3.2183865807e+02 3.4686594123e+02 7.5259445333e+01 0.0000e+00 0.0000e+00
        6  2    1    2  501    0 +4.9956490587e+00 +8.8609392883e+01 -2.0288772158e+02 2.8105235487e+02 1.7306188948e+02 0.0000e+00 0.0000e+00
       24  2    5    5    0    0 -3.7623470464e+01 +4.5572641524e+01 -4.0903938319e+01 1.0805123534e+02 8.0681758186e+01 0.0000e+00 0.0000e+00
        5  1    5    5  501    0 +4.2619119523e+01 +4.3036751359e+01 -1.6198378327e+02 1.7300111953e+02 4.7000000000e+00 0.0000e+00 -1.0000e+00
      -13  1    6    6    0    0 -1.5528331573e+01 +6.4448387276e+01 -4.2834156615e+01 7.8927109898e+01 0.0000000000e+00 0.0000e+00 1.0000e+00
       14  1    6    6    0    0 -2.2095138891e+01 -1.8875745752e+01 +1.9302182962e+00 2.9124125445e+01 0.0000000000e+00 0.0000e+00 -1.0000e+00
       -5  1    3    3    0  503 +5.5553917598e+01 -2.5534504591e+00 -2.6885806836e+02 2.7458970992e+02 4.7000000000e+00 0.0000e+00 1.0000e+00
       13  1    4    4    0    0 -4.1732970578e+01 -8.6004802106e+00 -6.3191582849e+01 7.6215387135e+01 0.0000000000e+00 0.0000e+00 -1.0000e+00
      -14  1    4    4    0    0 -1.8816596079e+01 -7.7455462214e+01 -2.5864707522e+02 2.7065055410e+02 0.0000000000e+00 0.0000e+00 1.0000e+00
<mgrwt>
<rscale>  2 0.19414077E+03</rscale>
<asrwt>0</asrwt>
<pdfrwt beam="1">  1       21 0.83787356E-02 0.19449164E+03</pdfrwt>
<pdfrwt beam="2">  1       21 0.13046864E+00 0.19449164E+03</pdfrwt>
<totfact> 0.47374075E+04</totfact>
</mgrwt>
</event>
<event>
12      1 +1.4674046e+01 2.49561200e+02 7.54677100e-03 1.11367400e-01
       21 -1    0    0  501  502 +0.0000000000e+00 +0.0000000000e+00 +4.7387303036e+01 4.7387303036e+01 0.0000000000e+00 0.0000e+00 -1.0000e+00
       21 -1    0    0  502  503 -0.0000000000e+00 -0.0000000000e+00 -1.4809069683e+03 1.4809069683e+03 0.0000000000e+00 0.0000e+00 1.0000e+00
       -6  2    1    2    0  503 -6.4088955249e+01 +1.6788685236e+02 -9.7465978587e+02 1.0059598954e+03 1.7233752804e+02 0.0000e+00 0.0000e+00
      -24  2    3    3    0    0 -1.0123240372e+02 +1.5111766316e+02 -6.8042270538e+02 7.0887675719e+02 8.0291040622e+01 0.0000e+00 0.0000e+00
        6  2    1    2  501    0 +6.4088955249e+01 -1.6788685236e+02 -4.5885987944e+02 5.2233437599e+02 1.7316876739e+02 0.0000e+00 0.0000e+00
       24  2    5    5    0    0 +8.4222066400e+01 -1.8283453124e+02 -4.4285303475e+02 4.9221653500e+02 7.5076525373e+01 0.0000e+00 0.0000e+00
        5  1    5    5  501    0 -2.0133111151e+01 +1.4947678883e+01 -1.6006844697e+01 3.0117840988e+01 4.7000000000e+00 0.0000e+00 -1.0000e+00
      -13  1    6    6    0    0 -1.3618903990e+01 -3.5095374518e+01 -7.7524845512e+01 8.6181561428e+01 0.0000000000e+00 0.0000e+00 1.0000e+00
       14  1    6    6    0    0 +9.7840970390e+01 -1.4773915673e+02 -3.6532818923e+02 4.0603497357e+02 0.0000000000e+00 0.0000e+00 -1.0000e+00
       -5  1    3    3    0  503 +3.7143448473e+01 +1.6769189199e+01 -2.9423708049e+02 2.9708313820e+02 4.7000000000e+00 0.0000e+00 1.0000e+00
       13  1    4    4    0    0 -4.4770741509e+01 +1.1345362416e+02 -5.2996793388e+02 5.4382180452e+02 0.0000000000e+00 0.0000e+00 -1.0000e+00
      -14  1    4    4    0    0 -5.6461662213e+01 +3.7664038998e+01 -1.5045477150e+02 1.6505495267e+02 0.0000000000e+00 0.0000e+00 1.0000e+00
<mgrwt>
<rscale>  2 0.24941709E+03</rscale>
<asrwt>0</asrwt>
<pdfrwt beam="1">  1       21 0.72903532E-02 0.24956124E+03</pdfrwt>
<pdfrwt beam="2">  1       21 0.22783188E+00 0.24956124E+03</pdfrwt>
<totfact> 0.12151364E+04</totfact>
</mgrwt>
</event>
<event>
13      2 +1.4674046e+01 1.88467000e+02 7.54677100e-03 1.16032600e-01
       21 -1    0    0  504  502 +0.0000000000e+00 +0.0000000000e+00 +2.5467347975e+02 2.5467347975e+02 0.0000000000e+00 0.0000e+00 -1.0000e+00
       21 -1    0    0  501  503 -0.0000000000e+00 -0.0000000000e+00 -3.0382077151e+02 3.0382077151e+02 0.0000000000e+00 0.0000e+00 1.0000e+00
        6  2    1    2  501    0 -1.6772599144e+01 -6.7573082587e+01 -1.6606887690e+02 2.4882698028e+02 1.7172231267e+02 0.0000e+00 0.0000e+00
       24  2    3    3    0    0 +1.5657613549e+01 +8.6482537828e+00 -1.3958440515e+02 1.6173548783e+02 7.9715799616e+01 0.0000e+00 0.0000e+00
       -6  2    1    2    0  502 +5.6738619605e+01 +6.4617855519e+01 +8.6910624072e+00 1.9425556355e+02 1.7396824767e+02 0.0000e+00 0.0000e+00
      -24  2    5    5    0    0 +4.3769846528e+01 +9.9989345565e+01 +4.6339932317e+01 1.4078726651e+02 7.5894640077e+01 0.0000e+00 0.0000e+00
        5  1    3    3  501    0 -3.2430212693e+01 -7.6221336369e+01 -2.6484471752e+01 8.7091492450e+01 4.7000000000e+00 0.0000e+00 -1.0000e+00
      -13  1    4    4    0    0 +7.2294039375e+00 +4.4304986428e+01 -8.1980246721e+01 9.3466341300e+01 0.0000000000e+00 0.0000e+00 1.0000e+00
       14  1    4    4    0    0 +8.4282096115e+00 -3.5656732645e+01 -5.7604158427e+01 6.8269146533e+01 0.0000000000e+00 0.0000e+00 -1.0000e+00
       -5  1    5    5    0  502 +1.2968773077e+01 -3.5371490047e+01 -3.7648869910e+01 5.3468297044e+01 4.7000000000e+00 0.0000e+00 1.0000e+00
       13  1    6    6    0    0 +5.3175745492e+01 +4.2327540528e+01 +4.6523033141e+01 8.2363057303e+01 0.0000000000e+00 0.0000e+00 -1.0000e+00
      -14  1    6    6    0    0 -9.4058989635e+00 +5.7661805037e+01 -1.8310082369e-01 5.8424209206e+01 0.0000000000e+00 0.0000e+00 1.0000e+00
       21  1    1    2  504  503 -3.9966020461e+01 +2.9552270680e+00 +1.0823052273e+02 1.1541170742e+02 0.0000000000e+00 0.0000e+00 -1.0000e+00
<mgrwt>
<rscale>  3 0.18794704E+03</rscale>
<asrwt>0</asrwt>
<pdfrwt beam="1">  1       21 0.39180536E-01 0.18846697E+03</pdfrwt>
<pdfrwt beam="2">  1       21 0.46741657E-01 0.18846697E+03</pdfrwt>
<totfact> 0.27585517E+04</totfact>
</mgrwt>
</event>
<event>
14      3 +1.4674046e+01 1.90936400e+02 7.54677100e-03 1.15811000e-01
        2 -1    0    0  504    0 -0.0000000000e+00 +0.0000000000e+00 +3.7057965865e+02 3.7057965865e+02 0.0000000000e+00 0.0000e+00 1.0000e+00
       21 -1    0    0  501  503 +0.0000000000e+00 -0.0000000000e+00 -6.8822038754e+02 6.8822038754e+02 0.0000000000e+00 0.0000e+00 1.0000e+00
        6  2    1    2  501    0 +5.7609506624e+01 +5.5871219909e+01 -5.5411164196e+02 5.8697188815e+02 1.7622666446e+02 0.0000e+00 0.0000e+00
       24  2    3    3    0    0 +9.7928478289e+01 +4.6898083340e+01 -2.9789164625e+02 3.2740125643e+02 8.1625564157e+01 0.0000e+00 0.0000e+00
       -6  2    1    2    0  502 +2.4190386854e+00 -5.6253004498e+01 -1.8098189507e+01 1.8365082466e+02 1.7386727315e+02 0.0000e+00 0.0000e+00
      -24  2    5    5    0    0 -6.5039549602e+01 -3.7151363518e+01 -2.7019706502e+01 1.1281850656e+02 7.9922362704e+01 0.0000e+00 0.0000e+00
        5  1    3    3  501    0 -4.0318971665e+01 +8.9731365686e+00 -2.5621999570e+02 2.5957063172e+02 4.7000000000e+00 0.0000e+00 -1.0000e+00
      -13  1    4    4    0    0 +3.7305831749e+01 +5.6381418226e+01 -2.0680432646e+02 2.1757439842e+02 0.0000000000e+00 0.0000e+00 1.0000e+00
       14  1    4    4    0    0 +6.0622646541e+01 -9.4833348856e+00 -9.1087319790e+01 1.0982685801e+02 0.0000000000e+00 0.0000e+00 -1.0000e+00
       -5  1    5    5    0  502 +6.7458588288e+01 -1.9101640980e+01 +8.9215169942e+00 7.0832318100e+01 4.7000000000e+00 0.0000e+00 1.0000e+00
       13  1    6    6    0    0 -4.6906844306e+01 -6.1648532763e+01 -2.7877978884e+01 8.2328460093e+01 0.0000000000e+00 0.0000e+00 -1.0000e+00
      -14  1    6    6    0    0 -1.8132705296e+01 +2.4497169245e+01 +8.5827238239e-01 3.0490046471e+01 0.0000000000e+00 0.0000e+00 1.0000e+00
       21  1    1    2  504  503 +3.7142047913e+01 -6.0146095091e+00 +7.4559774826e+01 8.3515670822e+01 0.0000000000e+00 0.0000e+00 -1.0000e+00
        2  1    1    2  502    0 -9.7170593222e+01 +6.3963940987e+00 +1.8000932775e+02 2.0466166256e+02 0.0000000000e+00 0.0000e+00 1.0000e+00
<mgrwt>
<rscale>  4 0.19039024E+03</rscale>
<asrwt>0</asrwt>
<pdfrwt beam="2">  1       21 0.10588006E+00 0.19093644E+03</pdfrwt>
<pdfrwt beam="1">  1        2 0.57012256E-01 0.19093644E+03</pdfrwt>
<totfact> 0.77483362E+02</totfact>
</mgrwt>
</event>
<event>
13      2 +1.4674046e+01 2.29186800e+02 7.54677100e-03 1.12738600e-01
       21 -1    0    0  503  502 +0.0000000000e+00 +0.0000000000e+00 +8.6729292229e+01 8.6729292229e+01 0.0000000000e+00 0.0000e+00 -1.0000e+00
       21 -1    0    0  501  503 -0.0000000000e+00 -0.0000000000e+00 -7.7728993384e+02 7.7728993384e+02 0.0000000000e+00 0.0000e+00 1.0000e+00
        6  2    1    2  501    0 +1.4733544071e+02 +1.8503075205e+01 -5.5037530382e+02 5.9618750527e+02 1.7457511423e+02 0.0000e+00 0.0000e+00
       24  2    3    3    0    0 +2.5201196022e+01 -4.3969032913e+01 -2.1483947859e+02 2.3366037797e+02 7.6634160371e+01 0.0000e+00 0.0000e+00
       -6  2    1    2    0  502 -1.4733544071e+02 -1.8503075205e+01 -1.4018533780e+02 2.6783172080e+02 1.7329687203e+02 0.0000e+00 0.0000e+00
      -24  2    5    5    0    0 -8.6816554624e+01 +7.6624426269e+00 -1.4220044394e+02 1.8572145852e+02 8.1704753332e+01 0.0000e+00 0.0000e+00
        5  1    3    3  501    0 +1.2213424468e+02 +6.2472108118e+01 -3.3553582522e+02 3.6252712729e+02 4.7000000000e+00 0.0000e+00 -1.0000e+00
      -13  1    4    4    0    0 +1.1466176652e+01 +2.1336585309e+01 -4.3599312413e+01 4.9876077659e+01 0.0000000000e+00 0.0000e+00 1.0000e+00
       14  1    4    4    0    0 +1.3735019370e+01 -6.5305618222e+01 -1.7124016618e+02 1.8378430032e+02 0.0000000000e+00 0.0000e+00 -1.0000e+00
       -5  1    5    5    0  504 -3.5245032461e+01 -2.8715645386e+01 +2.1097762792e+01 5.0338913357e+01 4.7000000000e+00 0.0000e+00 1.0000e+00
       13  1    6    6    0    0 -5.4871596628e+01 -3.5570603086e+01 -7.1288166307e+01 9.6737596496e+01 0.0000000000e+00 0.0000e+00 -1.0000e+00
      -14  1    6    6    0    0 -3.1944957997e+01 +4.3233045713e+01 -7.0912277629e+01 8.8983862029e+01 0.0000000000e+00 0.0000e+00 1.0000e+00
       21  1    5    5  504  502 -2.5273853621e+01 +2.5501275543e+00 -1.9082656655e+01 3.1771348923e+01 0.0000000000e+00 0.0000e+00 1.0000e+00
<mgrwt>
<rscale>  3 0.22894332E+03</rscale>
<asrwt>0</asrwt>
<pdfrwt beam="1">  1       21 0.13342968E-01 0.22918675E+03</pdfrwt>
<pdfrwt beam="2">  1       21 0.11958307E+00 0.22918675E+03</pdfrwt>
<totfact> 0.25292519E+04</totfact>
</mgrwt>
</event>
<event>
12      1 +1.4674046e+01 1.95719600e+02 7.54677100e-03 1.15407200e-01
       21 -1    0    0  501  502 +0.0000000000e+00 +0.0000000000e+00 +8.7885605031e+02 8.7885605031e+02 0.0000000000e+00 0.0000e+00 -1.0000e+00
       21 -1    0    0  502  503 -0.0000000000e+00 -0.0000000000e+00 -5.0404626214e+01 5.0404626214e+01 0.0000000000e+00 0.0000e+00 -1.0000e+00
       -6  2    1    2    0  503 -2.9607787838e+01 -8.6275658287e+01 +2.3781190389e+02 3.0799458328e+02 1.7316480989e+02 0.0000e+00 0.0000e+00
      -24  2    3    3    0    0 +8.9002772558e+00 -9.9339884515e+00 +1.9597890320e+02 2.1268974826e+02 8.1555499233e+01 0.0000e+00 0.0000e+00
        6  2    1    2  501    0 +2.9607787838e+01 +8.6275658287e+01 +5.9063952021e+02 6.2126609325e+02 1.6969503668e+02 0.0000e+00 0.0000e+00
       24  2    5    5    0    0 +2.5601475156e+01 +5.8941721285e+01 +1.6117285894e+02 1.9088614739e+02 7.9569270254e+01 0.0000e+00 0.0000e+00
        5  1    5    5  501    0 +4.0063126825e+00 +2.7333937002e+01 +4.2946666127e+02 4.3037994586e+02 4.7000000000e+00 0.0000e+00 -1.0000e+00
      -13  1    6    6    0    0 -1.9539142314e+01 +5.1903947168e+01 +1.0230048437e+02 1.1636660567e+02 0.0000000000e+00 0.0000e+00 1.0000e+00
       14  1    6    6    0    0 +4.5140617470e+01 +7.0377741178e+00 +5.8872374569e+01 7.4519541716e+01 0.0000000000e+00 0.0000e+00 -1.0000e+00
       -5  1    3    3    0  503 -3.8508065094e+01 -7.6341669836e+01 +4.1833000689e+01 9.5304835015e+01 4.7000000000e+00 0.0000e+00 1.0000e+00
       13  1    4    4    0    0 -3.6317509349e+01 -4.6526751956e-01 +9.1979874612e+01 9.8891229605e+01 0.0000000000e+00 0.0000e+00 -1.0000e+00
      -14  1    4    4    0    0 +4.5217786605e+01 -9.4687209319e+00 +1.0399902858e+02 1.1379851866e+02 0.0000000000e+00 0.0000e+00 1.0000e+00
<mgrwt>
<rscale>  2 0.19494928E+03</rscale>
<asrwt>0</asrwt>
<pdfrwt beam="1">  1       21 0.13520861E+00 0.19571960E+03</pdfrwt>
<pdfrwt beam="2">  1       21 0.77545585E-02 0.19571960E+03</pdfrwt>
<totfact> 0.49488727E+04</totfact>
</mgrwt>
</event>
<event>
13      3 +1.4674046e+01 1.19541500e+03 7.54677100e-03 9.54466900e-02
       21 -1    0    0  501  503 +0.0000000000e+00 +0.0000000000e+00 +4.9747984726e+02 4.9747984726e+02 0.0000000000e+00 0.0000e+00 1.0000e+00
        2 -1    0    0  504    0 -0.0000000000e+00 -0.0000000000e+00 -3.1548877103e+03 3.1548877103e+03 0.0000000000e+00 0.0000e+00 1.0000e+00
      -24  2    1    2    0    0 +9.0551289899e+01 +4.8139897421e+02 -1.4234350488e+03 1.5074545790e+03 7.9419525741e+01 0.0000e+00 0.0000e+00
        6  2    1    2  501    0 +1.9874144489e+02 -7.9918492659e+00 +8.3405632075e+01 2.7609688325e+02 1.7236866858e+02 0.0000e+00 0.0000e+00
       24  2    4    4    0    0 +1.1426471552e+02 +5.8609483363e+01 +7.4261839303e+01 1.6803322488e+02 7.8923045655e+01 0.0000e+00 0.0000e+00
        5  1    4    4  501    0 +8.4476729366e+01 -6.6601332629e+01 +9.1437927719e+00 1.0806365836e+02 4.7000000000e+00 0.0000e+00 -1.0000e+00
      -13  1    5    5    0    0 +9.4528856970e+01 +7.4352875409e+00 +5.6515873055e+01 1.1038583337e+02 0.0000000000e+00 0.0000e+00 1.0000e+00
       14  1    5    5    0    0 +1.9735858550e+01 +5.1174195822e+01 +1.7745966248e+01 5.7647391518e+01 0.0000000000e+00 0.0000e+00 -1.0000e+00
       -5  1    1    2    0  502 -2.5732985368e+02 -4.5180189533e+02 -3.3853481562e+02 6.2046073011e+02 4.7000000000e+00 0.0000e+00 1.0000e+00
       13  1    3    3    0    0 +7.8471409639e+01 +2.0398465522e+02 -6.2439635900e+02 6.6154237568e+02 0.0000000000e+00 0.0000e+00 -1.0000e+00
      -14  1    3    3    0    0 +1.2079880260e+01 +2.7741431899e+02 -7.9903868980e+02 8.4591220330e+02 0.0000000000e+00 0.0000e+00 1.0000e+00
       21  1    1    2  504  503 -2.7509064187e+01 +8.1288776357e+00 +1.3302383299e+02 1.3608147341e+02 0.0000000000e+00 0.0000e+00 1.0000e+00
        2  1    1    2  502    0 -4.4538169222e+00 -2.9734107249e+01 -1.1118674637e+03 1.1122738918e+03 0.0000000000e+00 0.0000e+00 1.0000e+00
<mgrwt>
<rscale>  4 0.81069163E+03</rscale>
<asrwt>0</asrwt>
<pdfrwt beam="1">  1       21 0.76535362E-01 0.11954153E+04</pdfrwt>
<pdfrwt beam="2">  1        2 0.48536734E+00 0.11954153E+04</pdfrwt>
<totfact> 0.22329073E+01</totfact>
</mgrwt>
</event>
<event>
13      2 +1.4674046e+01 2.03243200e+02 7.54677100e-03 1.14727600e-01
       21 -1    0    0  504  502 +0.0000000000e+00 +0.0000000000e+00 +3.4461740441e+02 3.4461740441e+02 0.0000000000e+00 0.0000e+00 -1.0000e+00
       21 -1    0    0  502  503 -0.0000000000e+00 -0.0000000000e+00 -1.8288531571e+02 1.8288531571e+02 0.0000000000e+00 0.0000e+00 1.0000e+00
       -6  2    1    2    0  503 +1.0088293705e+02 +2.7648480859e+01 -7.4963950396e+01 2.1552063704e+02 1.7288072666e+02 0.0000e+00 0.0000e+00
      -24  2    3    3    0    0 +1.1558394919e+02 +3.1174688285e+01 -7.0291457777e+00 1.4576548257e+02 8.2865291406e+01 0.0000e+00 0.0000e+00
        6  2    1    2  504    0 -1.0088293705e+02 -2.7648480859e+01 +2.3669603910e+02 3.1198208308e+02 1.7425842807e+02 0.0000e+00 0.0000e+00
       24  2    5    5    0    0 -5.7496420336e+01 -6.9398079940e+01 +8.7920319603e+01 1.4931601731e+02 8.0270533662e+01 0.0000e+00 0.0000e+00
        5  1    5    5  501    0 -2.0084557013e+01 +3.4490561745e+01 +1.0679413261e+02 1.1410549960e+02 4.7000000000e+00 0.0000e+00 -1.0000e+00
      -13  1    6    6    0    0 -3.0066714694e+01 -8.1145011039e+01 +8.1332687763e+01 1.1875826812e+02 0.0000000000e+00 0.0000e+00 1.0000e+00
       14  1    6    6    0    0 -2.7429705642e+01 +1.1746931099e+01 +6.5876318401e+00 3.0557749183e+01 0.0000000000e+00 0.0000e+00 -1.0000e+00
       -5  1    3    3    0  503 -1.4701012139e+01 -3.5262074258e+00 -6.7934804619e+01 6.9755154471e+01 4.7000000000e+00 0.0000e+00 1.0000e+00
       13  1    4    4    0    0 +8.9277462334e+01 +1.3245371163e+01 +3.1674168148e+01 9.5651231387e+01 0.0000000000e+00 0.0000e+00 -1.0000e+00
      -14  1    4    4    0    0 +2.6306486854e+01 +1.7929317122e+01 -3.8703313926e+01 5.0114251186e+01 0.0000000000e+00 0.0000e+00 1.0000e+00
       21  1    5    5  504  501 -2.3301959699e+01 +7.2590373365e+00 +4.1981586888e+01 4.8560566167e+01 0.0000000000e+00 0.0000e+00 -1.0000e+00
<mgrwt>
<rscale>  3 0.20294758E+03</rscale>
<asrwt>0</asrwt>
<pdfrwt beam="1">  1       21 0.53018062E-01 0.20324322E+03</pdfrwt>
<pdfrwt beam="2">  1       21 0.28136202E-01 0.20324322E+03</pdfrwt>
<totfact> 0.40456866E+04</totfact>
</mgrwt>
</event>
<event>
14      3 +1.4674046e+01 2.09983500e+02 7.54677100e-03 1.14157900e-01
       21 -1    0    0  502  503 +0.0000000000e+00 +0.0000000000e+00 +6.3466587974e+02 6.3466587974e+02 0.0000000000e+00 0.0000e+00 -1.0000e+00
       21 -1    0    0  501  504 -0.0000000000e+00 -0.0000000000e+00 -1.2322257813e+02 1.2322257813e+02 0.0000000000e+00 0.0000e+00 -1.0000e+00
        6  2    1    2  501    0 -1.2642790633e+02 -4.6460140515e+01 +6.2976092136e+01 2.2838324863e+02 1.7335039636e+02 0.0000e+00 0.0000e+00
       24  2    3    3    0    0 -4.3919600530e+01 +3.0938375716e+01 -6.6428988758e+00 9.5465812790e+01 7.8635099691e+01 0.0000e+00 0.0000e+00
       -6  2    1    2    0  503 +5.9867068298e+01 +5.9616553632e+01 +3.3954500221e+02 3.9192727413e+02 1.7657287546e+02 0.0000e+00 0.0000e+00
      -24  2    5    5    0    0 -1.5206106208e+01 -2.0406156342e+01 +1.7470510914e+02 1.9385179359e+02 8.0056266705e+01 0.0000e+00 0.0000e+00
        5  1    3    3  501    0 -8.2508305797e+01 -7.7398516231e+01 +6.9618991012e+01 1.3291743584e+02 4.7000000000e+00 0.0000e+00 -1.0000e+00
      -13  1    4    4    0    0 -2.1671142662e+01 -2.0944275925e+01 -2.1584553983e+01 3.7070123940e+01 0.0000000000e+00 0.0000e+00 1.0000e+00
       14  1    4    4    0    0 -2.2248457868e+01 +5.1882651641e+01 +1.4941655108e+01 5.8395688849e+01 0.0000000000e+00 0.0000e+00 -1.0000e+00
       -5  1    5    5    0  503 +7.5073174506e+01 +8.0022709974e+01 +1.6483989308e+02 1.9807548054e+02 4.7000000000e+00 0.0000e+00 1.0000e+00
       13  1    6    6    0    0 +3.1855124998e+01 -6.8658888092e+00 +9.3588982012e+01 9.9099883813e+01 0.0000000000e+00 0.0000e+00 -1.0000e+00
      -14  1    6    6    0    0 -4.7061231206e+01 -1.3540267533e+01 +8.1116127125e+01 9.4751909781e+01 0.0000000000e+00 0.0000e+00 1.0000e+00
        2  1    1    2  502    0 +4.9125563048e+01 +1.2935221338e+01 +8.0784739407e+01 9.5429633851e+01 0.0000000000e+00 0.0000e+00 -1.0000e+00
       -2  1    1    2    0  504 +1.7435274981e+01 -2.6091634455e+01 +2.8137467852e+01 4.2148301262e+01 0.0000000000e+00 0.0000e+00 1.0000e+00
<mgrwt>
<rscale>  4 0.20998354E+03</rscale>
<asrwt>0</asrwt>
<pdfrwt beam="1">  1       21 0.97640903E-01 0.20998354E+03</pdfrwt>
<pdfrwt beam="2">  1       21 0.18957320E-01 0.20998354E+03</pdfrwt>
<totfact> 0.21923067E+04</totfact>
</mgrwt>
</event>
<event>
13      2 +1.4674046e+01 2.60828800e+02 7.54677100e-03 1.10669800e-01
       21 -1    0    0  503  502 +0.0000000000e+00 +0.0000000000e+00 +5.3179794819e+01 5.3179794819e+01 0.0000000000e+00 0.0000e+00 1.0000e+00
       21 -1    0    0  501  503 -0.0000000000e+00 -0.0000000000e+00 -1.7260763579e+03 1.7260763579e+03 0.0000000000e+00 0.0000e+00 1.0000e+00
        6  2    1    2  501    0 -3.6017700393e+01 +1.9395678955e+02 -9.4509606518e+02 9.8090541981e+02 1.7335616294e+02 0.0000e+00 0.0000e+00
       24  2    3    3    0    0 -5.7349517554e+01 +1.5999159491e+02 -4.9453951566e+02 5.2854276088e+02 7.6823433456e+01 0.0000e+00 0.0000e+00
       -6  2    1    2    0  504 +9.5364438454e+01 -1.7161989561e+02 -6.2160006321e+02 6.7465956719e+02 1.7387101060e+02 0.0000e+00 0.0000e+00
      -24  2    5    5    0    0 +5.3092062363e+01 -1.1177443210e+01 -2.4048721976e+02 2.5896999100e+02 7.9294710078e+01 0.0000e+00 0.0000e+00
        5  1    3    3  501    0 +2.1331817161e+01 +3.3965194638e+01 -4.5055654953e+02 4.5236265893e+02 4.7000000000e+00 0.0000e+00 -1.0000e+00
      -13  1    4    4    0    0 -2.6667787855e+01 +1.9592908703e+01 -1.7601794567e+02 1.7910156386e+02 0.0000000000e+00 0.0000e+00 1.0000e+00
       14  1    4    4    0    0 -3.0681729699e+01 +1.4039868621e+02 -3.1852156999e+02 3.4944119702e+02 0.0000000000e+00 0.0000e+00 -1.0000e+00
       -5  1    5    5    0  504 +4.2272376091e+01 -1.6044245240e+02 -3.8111284345e+02 4.1568957619e+02 4.7000000000e+00 0.0000e+00 1.0000e+00
       13  1    6    6    0    0 +6.6457836004e+01 -1.9721270690e+01 -1.2979848442e+02 1.4715032804e+02 0.0000000000e+00 0.0000e+00 -1.0000e+00
      -14  1    6    6    0    0 -1.3365773641e+01 +8.5438274807e+00 -1.1068873534e+02 1.1181966296e+02 0.0000000000e+00 0.0000e+00 1.0000e+00
       21  1    1    2  504  502 -5.9346738061e+01 -2.2336893942e+01 -1.0620043467e+02 1.2369116571e+02 0.0000000000e+00 0.0000e+00 1.0000e+00
<mgrwt>
<rscale>  3 0.26074307E+03</rscale>
<asrwt>0</asrwt>
<pdfrwt beam="1">  1       21 0.81815081E-02 0.26082885E+03</pdfrwt>
<pdfrwt beam="2">  1       21 0.26555017E+00 0.26082885E+03</pdfrwt>
<totfact> 0.58494262E+03</totfact>
</mgrwt>
</event>
<event>
13      2 +1.4674046e+01 1.94482700e+02 7.54677100e-03 1.15447900e-01
       -2 -1    0    0    0  501 -0.0000000000e+00 +0.0000000000e+00 +9.2949042114e+02 9.2949042114e+02 0.0000000000e+00 0.0000e+00 -1.0000e+00
        2 -1    0    0  502    0 +0.0000000000e+00 -0.0000000000e+00 -6.3902361523e+01 6.3902361523e+01 0.0000000000e+00 0.0000e+00 1.0000e+00
        6  2    1    2  502    0 +5.4154472914e+01 -6.0578826750e+01 +5.2334028722e+02 5.5762360911e+02 1.7451799916e+02 0.0000e+00 0.0000e+00
       24  2    3    3    0    0 -2.5862860359e+01 -1.0736905346e+01 +1.4890196795e+02 1.7147190876e+02 8.0291037800e+01 0.0000e+00 0.0000e+00
       -6  2    1    2    0  503 -3.6520888272e+01 +8.2684839573e+01 +1.6366074256e+02 2.5495726482e+02 1.7334304213e+02 0.0000e+00 0.0000e+00
      -24  2    5    5    0    0 -5.2114125685e+01 +1.1663238338e+02 +9.8695884347e+01 1.7986993176e+02 7.9330446970e+01 0.0000e+00 0.0000e+00
        5  1    3    3  502    0 +8.0017333272e+01 -4.9841921404e+01 +3.7443831926e+02 3.8615170035e+02 4.7000000000e+00 0.0000e+00 -1.0000e+00
      -13  1    4    4    0    0 +2.6685516804e+01 -4.3438111309e+00 +2.5371008674e+01 3.7076590774e+01 0.0000000000e+00 0.0000e+00 1.0000e+00
       14  1    4    4    0    0 -5.2548377163e+01 -6.3930942154e+00 +1.2353095928e+02 1.3439531799e+02 0.0000000000e+00 0.0000e+00 -1.0000e+00
       -5  1    5    5    0  503 +1.5593237413e+01 -3.3947543806e+01 +6.4964858210e+01 7.5087333058e+01 4.7000000000e+00 0.0000e+00 1.0000e+00
       13  1    6    6    0    0 +1.6586048482e+01 +4.1456140455e+01 +4.9847657765e+01 6.6921577763e+01 0.0000000000e+00 0.0000e+00 -1.0000e+00
      -14  1    6    6    0    0 -6.8700174167e+01 +7.5176242924e+01 +4.8848226582e+01 1.1294835400e+02 0.0000000000e+00 0.0000e+00 1.0000e+00
       21  1    1    2  503  501 -1.7633584642e+01 -2.2106012823e+01 +1.7858702985e+02 1.8081190873e+02 0.0000000000e+00 0.0000e+00 1.0000e+00
<mgrwt>
<rscale>  3 0.19448274E+03</rscale>
<asrwt>0</asrwt>
<pdfrwt beam="2">  1        2 0.98311333E-02 0.19448274E+03</pdfrwt>
<pdfrwt beam="1">  1       -2 0.14299852E+00 0.19448274E+03</pdfrwt>
<totfact> 0.23462629E+02</totfact>
</mgrwt>
</event>
<event>
14      3 +1.4674046e+01 2.83947700e+02 7.54677100e-03 1.10678100e-01
       21 -1    0    0  502  503 +0.0000000000e+00 +0.0000000000e+00 +9.1497327469e+02 9.1497327469e+02 0.0000000000e+00 0.0000e+00 1.0000e+00
       21 -1    0    0  503  504 -0.0000000000e+00 -0.0000000000e+00 -2.0713790013e+02 2.0713790013e+02 0.0000000000e+00 0.0000e+00 -1.0000e+00
       -6  2    1    2    0  504 +7.1325634355e+01 -1.4617059779e+02 +1.1823349320e+02 2.6516535125e+02 1.7285923411e+02 0.0000e+00 0.0000e+00
      -24  2    3    3    0    0 -6.5387874514e+00 -1.1911279295e+02 +3.4816783592e+01 1.4779657164e+02 8.0006280898e+01 0.0000e+00 0.0000e+00
        6  2    1    2  501    0 -2.9313101228e+01 -9.9802911516e+01 -1.2986762283e+01 2.0188801084e+02 1.7254052822e+02 0.0000e+00 0.0000e+00
       24  2    5    5    0    0 -6.2531626694e+01 -1.0237272616e+02 +2.9611218926e+01 1.4760401334e+02 8.0744913586e+01 0.0000e+00 0.0000e+00
        5  1    5    5  501    0 +3.3218525466e+01 +2.5698146466e+00 -4.2597981209e+01 5.4283997499e+01 4.7000000000e+00 0.0000e+00 -1.0000e+00
      -13  1    6    6    0    0 -7.7380391659e+00 -5.3083253135e+01 -2.1629826143e+01 5.7840802142e+01 0.0000000000e+00 0.0000e+00 1.0000e+00
       14  1    6    6    0    0 -5.4793587528e+01 -4.9289473028e+01 +5.1241045069e+01 8.9763211202e+01 0.0000000000e+00 0.0000e+00 -1.0000e+00
       -5  1    3    3    0  504 +7.7864421806e+01 -2.7057804832e+01 +8.3416709604e+01 1.1736877961e+02 4.7000000000e+00 0.0000e+00 1.0000e+00
       13  1    4    4    0    0 +3.2690185493e+01 -7.5116641202e+01 +3.4396009365e+01 8.8849555279e+01 0.0000000000e+00 0.0000e+00 -1.0000e+00
      -14  1    4    4    0    0 -3.9228972945e+01 -4.3996151753e+01 +4.2077422679e-01 5.8947016365e+01 0.0000000000e+00 0.0000e+00 1.0000e+00
        3  1    1    2  502    0 -5.7729578040e+01 +2.0284674069e+02 +5.0093143621e+02 5.4351799250e+02 0.0000000000e+00 0.0000e+00 1.0000e+00
       -3  1    1    2    0  501 +1.5717044914e+01 +4.3126768608e+01 +1.0165720744e+02 1.1153982023e+02 0.0000000000e+00 0.0000e+00 -1.0000e+00
<mgrwt>
<rscale>  4 0.26060417E+03</rscale>
<asrwt>0</asrwt>
<pdfrwt beam="1">  1       21 0.14076512E+00 0.28394775E+03</pdfrwt>
<pdfrwt beam="2">  1       21 0.31867370E-01 0.28394775E+03</pdfrwt>
<totfact> 0.31218466E+03</totfact>
</mgrwt>
</event>
<event>
12      1 +1.4674046e+01 2.10757100e+02 7.54677100e-03 1.14130700e-01
       21 -1    0    0  501  502 +0.0000000000e+00 +0.0000000000e+00 +4.3193391158e+02 4.3193391158e+02 0.0000000000e+00 0.0000e+00 -1.0000e+00
       21 -1    0    0  502  503 -0.0000000000e+00 -0.0000000000e+00 -1.8014479251e+02 1.8014479251e+02 0.0000000000e+00 0.0000e+00 -1.0000e+00
       -6  2    1    2    0  503 -7.2861707814e+01 -9.6616450660e+01 -7.5376994811e+01 2.2383080697e+02 1.7255425755e+02 0.0000e+00 0.0000e+00
      -24  2    3    3    0    0 -9.8175909933e+01 -2.1462048290e+01 -3.0964369989e+01 1.3281671867e+02 8.1131743126e+01 0.0000e+00 0.0000e+00
        6  2    1    2  501    0 +7.2861707814e+01 +9.6616450660e+01 +3.2716611388e+02 3.8824789713e+02 1.7045584926e+02 0.0000e+00 0.0000e+00
       24  2    5    5    0    0 +4.2707361208e+01 +3.0082192894e+00 +2.4089652028e+02 2.5734213568e+02 7.9755082787e+01 0.0000e+00 0.0000e+00
        5  1    5    5  501    0 +3.0154346605e+01 +9.3608231370e+01 +8.6269593606e+01 1.3090576145e+02 4.7000000000e+00 0.0000e+00 -1.0000e+00
      -13  1    6    6    0    0 +3.5174853715e+01 -3.1827352141e+01 +1.8551173083e+02 1.9148068559e+02 0.0000000000e+00 0.0000e+00 1.0000e+00
       14  1    6    6    0    0 +7.5325074932e+00 +3.4835571431e+01 +5.5384789450e+01 6.5861450094e+01 0.0000000000e+00 0.0000e+00 -1.0000e+00
       -5  1    3    3    0  503 +2.5314202119e+01 -7.5154402370e+01 -4.4412624822e+01 9.1014088295e+01 4.7000000000e+00 0.0000e+00 1.0000e+00
       13  1    4    4    0    0 -3.9012985245e+01 +5.7558637259e+00 -5.1195693421e+01 6.4623076449e+01 0.0000000000e+00 0.0000e+00 -1.0000e+00
      -14  1    4    4    0    0 -5.9162924688e+01 -2.7217912015e+01 +2.0231323432e+01 6.8193642225e+01 0.0000000000e+00 0.0000e+00 1.0000e+00
<mgrwt>
<rscale>  2 0.21032710E+03</rscale>
<asrwt>0</asrwt>
<pdfrwt beam="1">  1       21 0.66451371E-01 0.21075706E+03</pdfrwt>
<pdfrwt beam="2">  1       21 0.27714584E-01 0.21075706E+03</pdfrwt>
<totfact> 0.25547891E+04</totfact>
</mgrwt>
</event>
<event>
13      2 +1.4674046e+01 3.31935400e+02 7.54677100e-03 1.07054100e-01
       21 -1    0    0  501  502 +0.0000000000e+00 +0.0000000000e+00 +2.4673908725e+02 2.4673908725e+02 0.0000000000e+00 0.0000e+00 1.0000e+00
       21 -1    0    0  502  503 -0.0000000000e+00 -0.0000000000e+00 -6.5676230167e+02 6.5676230167e+02 0.0000000000e+00 0.0000e+00 -1.0000e+00
       -6  2    1    2    0  504 +1.8614337552e+02 -1.9770672380e+02 -3.3512239785e+02 4.6279270797e+02 1.6772824485e+02 0.0000e+00 0.0000e+00
      -24  2    3    3    0    0 +1.4324274261e+02 -2.0247441454e+02 -3.2763281112e+02 4.1873162436e+02 8.0489393477e+01 0.0000e+00 0.0000e+00
        6  2    1    2  501    0 -2.0925039426e+02 +1.9876248098e+02 +2.6073726581e+01 3.3711858827e+02 1.7226970715e+02 0.0000e+00 0.0000e+00
       24  2    5    5    0    0 -2.5201405048e+01 +9.5254519660e+01 -1.5023280197e+01 1.2194660485e+02 7.0261946699e+01 0.0000e+00 0.0000e+00
        5  1    5    5  501    0 -1.8404898921e+02 +1.0350796132e+02 +4.1097006778e+01 2.1517198343e+02 4.7000000000e+00 0.0000e+00 -1.0000e+00
      -13  1    6    6    0    0 -2.4916899466e+01 +5.4067246662e+00 +1.1919953357e+01 2.8145511874e+01 0.0000000000e+00 0.0000e+00 1.0000e+00
       14  1    6    6    0    0 -2.8450558179e-01 +8.9847794993e+01 -2.6943233554e+01 9.3801092973e+01 0.0000000000e+00 0.0000e+00 -1.0000e+00
       -5  1    3    3    0  504 +4.2900632909e+01 +4.7676907426e+00 -7.4895867251e+00 4.4061083603e+01 4.7000000000e+00 0.0000e+00 1.0000e+00
       13  1    4    4    0    0 +2.7006091797e+01 -3.5081793579e+01 -1.1951355798e+02 1.2745019331e+02 0.0000000000e+00 0.0000e+00 -1.0000e+00
      -14  1    4    4    0    0 +1.1623665082e+02 -1.6739262096e+02 -2.0811925315e+02 2.9128143105e+02 0.0000000000e+00 0.0000e+00 1.0000e+00
       21  1    1    2  504  503 +2.3107018736e+01 -1.0557571792e+00 -1.0097454315e+02 1.0359009268e+02 0.0000000000e+00 0.0000e+00 1.0000e+00
<mgrwt>
<rscale>  3 0.33135035E+03</rscale>
<asrwt>0</asrwt>
<pdfrwt beam="1">  1       21 0.37959860E-01 0.33193542E+03</pdfrwt>
<pdfrwt beam="2">  1       21 0.10104035E+00 0.33193542E+03</pdfrwt>
<totfact> 0.49251667E+03</totfact>
</mgrwt>
</event>
<event>
13      2 +1.4674046e+01 1.80751500e+02 7.54677100e-03 1.16707800e-01
       -2 -1    0    0    0  501 -0.0000000000e+00 +0.0000000000e+00 +1.9843997708e+02 1.9843997708e+02 0.0000000000e+00 0.0000e+00 -1.0000e+00
        2 -1    0    0  503    0 +0.0000000000e+00 -0.0000000000e+00 -2.9248702564e+02 2.9248702564e+02 0.0000000000e+00 0.0000e+00 1.0000e+00
        6  2    1    2  502    0 -1.7173136073e+01 +6.0778304715e+01 +1.2584027252e+01 1.8539852626e+02 1.7385435534e+02 0.0000e+00 0.0000e+00
       24  2    3    3    0    0 -1.9714010609e+01 +7.5210309618e+01 -4.9402790905e+01 1.2152995469e+02 7.9269548061e+01 0.0000e+00 0.0000e+00
       -6  2    1    2    0  501 +1.1596908073e+01 -3.6508907032e+01 +1.7958180099e+01 1.7847502050e+02 1.7338814302e+02 0.0000e+00 0.0000e+00
      -24  2    5    5    0    0 +2.3170551154e+01 +4.5081166071e+01 +5.8451617997e+00 9.5050177342e+01 8.0194665167e+01 0.0000e+00 0.0000e+00
        5  1    3    3  502    0 +2.5408745366e+00 -1.4432004903e+01 +6.1986818158e+01 6.3868571569e+01 4.7000000000e+00 0.0000e+00 -1.0000e+00
      -13  1    4    4    0    0 -8.3913949062e+00 +1.8973733803e+01 -5.9740900777e+01 6.3240756704e+01 0.0000000000e+00 0.0000e+00 1.0000e+00
       14  1    4    4    0    0 -1.1322615703e+01 +5.6236575815e+01 +1.0338109871e+01 5.8289197983e+01 0.0000000000e+00 0.0000e+00 -1.0000e+00
       -5  1    5    5    0  501 -1.1573643081e+01 -8.1590073103e+01 +1.2113018300e+01 8.3424843155e+01 4.7000000000e+00 0.0000e+00 1.0000e+00
       13  1    6    6    0    0 -2.0833439129e+01 +1.8472375246e+01 +2.7608578646e+01 3.9210897057e+01 0.0000000000e+00 0.0000e+00 -1.0000e+00
      -14  1    6    6    0    0 +4.4003990283e+01 +2.6608790826e+01 -2.1763416846e+01 5.5839280286e+01 0.0000000000e+00 0.0000e+00 1.0000e+00
       21  1    1    2  503  502 +5.5762279996e+00 -2.4269397683e+01 -1.2458925591e+02 1.2705345596e+02 0.0000000000e+00 0.0000e+00 1.0000e+00
<mgrwt>
<rscale>  3 0.18075154E+03</rscale>
<asrwt>0</asrwt>
<pdfrwt beam="2">  1        2 0.44998004E-01 0.18075154E+03</pdfrwt>
<pdfrwt beam="1">  1       -2 0.30529227E-01 0.18075154E+03</pdfrwt>
<totfact> 0.11064741E+03</totfact>
</mgrwt>
</event>
<event>
13      2 +1.4674046e+01 2.93342700e+02 7.54677100e-03 1.08872100e-01
       21 -1    0    0  502  503 +0.0000000000e+00 +0.0000000000e+00 +2.3269999301e+03 2.3269999301e+03 0.0000000000e+00 0.0000e+00 -1.0000e+00
       -2 -1    0    0    0  501 -0.0000000000e+00 -0.0000000000e+00 -9.2997569787e+02 9.2997569787e+02 0.0000000000e+00 0.0000e+00 1.0000e+00
        6  2    1    2  502    0 -1.3556196332e+02 -1.9318707210e+02 +1.9730219138e+03 1.9947270009e+03 1.7441916521e+02 0.0000e+00 0.0000e+00
       24  2    3    3    0    0 -2.4699635361e+01 -1.0488208523e+02 +6.3387802687e+02 6.4809540084e+02 8.1338624610e+01 0.0000e+00 0.0000e+00
       -6  2    1    2    0  501 +1.5386747347e+02 +1.7890515339e+02 +2.8054896933e+02 4.0538736054e+02 1.7305760484e+02 0.0000e+00 0.0000e+00
      -24  2    5    5    0    0 +6.8148087153e+01 +1.9791926979e+01 +1.3794201761e+02 1.7511868119e+02 8.1256815859e+01 0.0000e+00 0.0000e+00
        5  1    3    3  502    0 -1.1086232795e+02 -8.8304986870e+01 +1.3391438869e+03 1.3466316000e+03 4.7000000000e+00 0.0000e+00 -1.0000e+00
      -13  1    4    4    0    0 +7.0609676885e-01 +1.3499931184e+01 +8.0428725840e+01 8.1556892136e+01 0.0000000000e+00 0.0000e+00 1.0000e+00
       14  1    4    4    0    0 -2.5405732130e+01 -1.1838201641e+02 +5.5344930103e+02 5.6653850870e+02 0.0000000000e+00 0.0000e+00 -1.0000e+00
       -5  1    5    5    0  501 +8.5719386313e+01 +1.5911322641e+02 +1.4260695171e+02 2.3026867934e+02 4.7000000000e+00 0.0000e+00 1.0000e+00
       13  1    6    6    0    0 +1.3956737384e+01 +4.5186543960e+01 +5.0812436528e+01 6.9415545660e+01 0.0000000000e+00 0.0000e+00 -1.0000e+00
      -14  1    6    6    0    0 +5.4191349769e+01 -2.5394616981e+01 +8.7129581084e+01 1.0570313553e+02 0.0000000000e+00 0.0000e+00 1.0000e+00
       -2  1    1    2    0  503 -1.8305510150e+01 +1.4281918704e+01 -8.5654665089e+02 8.5686126651e+02 0.0000000000e+00 0.0000e+00 1.0000e+00
<mgrwt>
<rscale>  3 0.29314062E+03</rscale>
<asrwt>0</asrwt>
<pdfrwt beam="1">  1       21 0.35799999E+00 0.29334271E+03</pdfrwt>
<pdfrwt beam="2">  1       -2 0.14307319E+00 0.29334271E+03</pdfrwt>
<totfact> 0.40344003E-01</totfact>
</mgrwt>
</event>
<event>
14      3 +1.4674046e+01 2.83027000e+02 7.54677100e-03 1.10264100e-01
        1 -1    0    0  501    0 -0.0000000000e+00 +0.0000000000e+00 +8.7051696863e+02 8.7051696863e+02 0.0000000000e+00 0.0000e+00 1.0000e+00
       21 -1    0    0  504  503 +0.0000000000e+00 -0.0000000000e+00 -7.9073384969e+02 7.9073384969e+02 0.0000000000e+00 0.0000e+00 1.0000e+00
        6  2    1    2  501    0 -1.0067033215e+02 -1.5224920238e+02 -8.5108591330e+01 2.6745016076e+02 1.7598801315e+02 0.0000e+00 0.0000e+00
       24  2    3    3    0    0 -9.2060681108e+01 -1.3179151862e+02 -5.0171210220e-01 1.7985417382e+02 8.0641792754e+01 0.0000e+00 0.0000e+00
       -6  2    1    2    0  503 -1.1806253918e+02 -2.2295395557e+02 +1.9568916443e+02 3.6294147615e+02 1.7258341916e+02 0.0000e+00 0.0000e+00
      -24  2    5    5    0    0 -4.5391967376e+01 -3.8636294192e+01 +3.0823784870e+01 1.0514951413e+02 8.0951347588e+01 0.0000e+00 0.0000e+00
        5  1    3    3  501    0 -8.6096510459e+00 -2.0457683757e+01 -8.4606879228e+01 8.7595986943e+01 4.7000000000e+00 0.0000e+00 -1.0000e+00
      -13  1    4    4    0    0 -4.1251322677e+01 -9.9652640592e+01 -3.1301008917e+01 1.1230348863e+02 0.0000000000e+00 0.0000e+00 1.0000e+00
       14  1    4    4    0    0 -5.0809358432e+01 -3.2138878032e+01 +3.0799296815e+01 6.7550685190e+01 0.0000000000e+00 0.0000e+00 -1.0000e+00
       -5  1    5    5    0  503 -7.2670571805e+01 -1.8431766138e+02 +1.6486537956e+02 2.5779196202e+02 4.7000000000e+00 0.0000e+00 1.0000e+00
       13  1    6    6    0    0 +1.2430396360e+01 +9.0338156179e+00 -1.1400372458e+01 1.9133558751e+01 0.0000000000e+00 0.0000e+00 -1.0000e+00
      -14  1    6    6    0    0 -5.7822363735e+01 -4.7670109810e+01 +4.2224157328e+01 8.6015955376e+01 0.0000000000e+00 0.0000e+00 1.0000e+00
       21  1    1    2  504  502 +1.7916708249e+02 +1.5238563869e+02 -4.7627975748e+02 5.3119171088e+02 0.0000000000e+00 0.0000e+00 1.0000e+00
        1  1    1    2  502    0 +3.9565788847e+01 +2.2281751927e+02 +4.4548230332e+02 4.9966747053e+02 0.0000000000e+00 0.0000e+00 1.0000e+00
<mgrwt>
<rscale>  4 0.26763536E+03</rscale>
<asrwt>0</asrwt>
<pdfrwt beam="2">  1       21 0.12165136E+00 0.28302696E+03</pdfrwt>
<pdfrwt beam="1">  1        1 0.13392569E+00 0.28302696E+03</pdfrwt>
<totfact> 0.10791182E+02</totfact>
</mgrwt>
</event>
<event>
12      2 +1.4674046e+01 2.13109100e+02 7.54677100e-03 1.13929900e-01
       21 -1    0    0  503  502 +0.0000000000e+00 +0.0000000000e+00 +3.5695042562e+02 3.5695042562e+02 0.0000000000e+00 0.0000e+00 1.0000e+00
       21 -1    0    0  501  503 -0.0000000000e+00 -0.0000000000e+00 -2.0517370180e+02 2.0517370180e+02 0.0000000000e+00 0.0000e+00 -1.0000e+00
        6  2    1    2  501    0 +1.0228995787e+02 +4.8406900412e+01 +1.4703022376e+02 2.5425896564e+02 1.7384841506e+02 0.0000e+00 0.0000e+00
       24  2    3    3    0    0 +6.0427332545e+01 +9.7362403968e+01 +8.1448259030e+01 1.6221438500e+02 8.0924579553e+01 0.0000e+00 0.0000e+00
       -6  2    1    2    0  504 -1.0078080898e+02 -7.8866726491e+01 -7.0829216187e+01 2.2636812244e+02 1.7276868057e+02 0.0000e+00 0.0000e+00
        5  1    3    3  501    0 +4.1862625329e+01 -4.8955503556e+01 +6.5581964734e+01 9.2044580646e+01 4.7000000000e+00 0.0000e+00 -1.0000e+00
      -13  1    4    4    0    0 +4.6144178754e+01 +7.2390698678e+00 +4.1961163576e+01 6.2788761846e+01 0.0000000000e+00 0.0000e+00 1.0000e+00
       14  1    4    4    0    0 +1.4283153791e+01 +9.0123334100e+01 +3.9487095454e+01 9.9425623151e+01 0.0000000000e+00 0.0000e+00 -1.0000e+00
       -5  1    5    5    0  504 -2.1680110080e+01 -3.7452340508e+01 +4.2709505428e+00 4.3738267011e+01 4.7000000000e+00 0.0000e+00 1.0000e+00
       13  1    5    5    0    0 -4.8910080444e+01 -9.3925072332e+01 -4.7003365102e+01 1.1585953354e+02 0.0000000000e+00 0.0000e+00 -1.0000e+00
      -14  1    5    5    0    0 -3.0190618458e+01 +5.2510686349e+01 -2.8096801628e+01 6.6770321891e+01 0.0000000000e+00 0.0000e+00 1.0000e+00
       21  1    1    2  504  502 -1.5091488922e+00 +3.0459826079e+01 +7.5575716245e+01 8.1497039339e+01 0.0000000000e+00 0.0000e+00 1.0000e+00
<mgrwt>
<rscale>  3 0.21288879E+03</rscale>
<asrwt>0</asrwt>
<pdfrwt beam="1">  1       21 0.54915450E-01 0.21310910E+03</pdfrwt>
<pdfrwt beam="2">  1       21 0.31565185E-01 0.21310910E+03</pdfrwt>
<totfact> 0.29857695E+04</totfact>
</mgrwt>
</event>
<event>
13      2 +1.4674046e+01 2.47852300e+02 7.54677100e-03 1.11483800e-01
       21 -1    0    0  501  502 +0.0000000000e+00 +0.0000000000e+00 +4.1055477238e+02 4.1055477238e+02 0.0000000000e+00 0.0000e+00 1.0000e+00
       21 -1    0    0  504  503 -0.0000000000e+00 -0.0000000000e+00 -1.7508168142e+02 1.7508168142e+02 0.0000000000e+00 0.0000e+00 1.0000e+00
       -6  2    1    2    0  503 -6.8920063266e+01 -1.6738658345e+02 +1.3079911819e+02 2.8285725175e+02 1.7358448119e+02 0.0000e+00 0.0000e+00
      -24  2    3    3    0    0 -6.2380403045e+01 -8.3758566435e+01 +1.4619225933e+02 1.9744383840e+02 8.1884555923e+01 0.0000e+00 0.0000e+00
        6  2    1    2  501    0 +8.5565708051e+01 +1.5196328855e+02 +5.9341313772e+01 2.5208398049e+02 1.7207733796e+02 0.0000e+00 0.0000e+00
       24  2    5    5    0    0 +1.2709292259e+02 +1.1594136532e+02 +3.9137136877e+01 1.9332696164e+02 7.9048007233e+01 0.0000e+00 0.0000e+00
        5  1    5    5  501    0 -4.1527214542e+01 +3.6021923225e+01 +2.0204176895e+01 5.8757018853e+01 4.7000000000e+00 0.0000e+00 -1.0000e+00
      -13  1    6    6    0    0 +7.0423023814e+01 +1.1087176004e+02 +3.6704504650e+01 1.3637877444e+02 0.0000000000e+00 0.0000e+00 1.0000e+00
       14  1    6    6    0    0 +5.6669898779e+01 +5.0696052851e+00 +2.4326322274e+00 5.6948187196e+01 0.0000000000e+00 0.0000e+00 -1.0000e+00
       -5  1    3    3    0  503 -6.5396602213e+00 -8.3628017018e+01 -1.5393141142e+01 8.5413413352e+01 4.7000000000e+00 0.0000e+00 1.0000e+00
       13  1    4    4    0    0 +1.6731127647e+01 -3.4695049625e+01 +3.1721472840e+01 4.9899187769e+01 0.0000000000e+00 0.0000e+00 -1.0000e+00
      -14  1    4    4    0    0 -7.9111530692e+01 -4.9063516810e+01 +1.1447078649e+02 1.4754465063e+02 0.0000000000e+00 0.0000e+00 1.0000e+00
       21  1    1    2  504  502 -1.6645644785e+01 +1.5423294906e+01 +4.5332659004e+01 5.0695221555e+01 0.0000000000e+00 0.0000e+00 1.0000e+00
<mgrwt>
<rscale>  3 0.24758853E+03</rscale>
<asrwt>0</asrwt>
<pdfrwt beam="1">  1       21 0.63162273E-01 0.24785225E+03</pdfrwt>
<pdfrwt beam="2">  1       21 0.26935643E-01 0.24785225E+03</pdfrwt>
<totfact> 0.29613884E+04</totfact>
</mgrwt>
</event>
<event>
14      3 +1.4674046e+01 2.02001500e+02 7.54677100e-03 1.14895200e-01
       21 -1    0    0  501  503 +0.0000000000e+00 +0.0000000000e+00 +9.5265498663e+01 9.5265498663e+01 0.0000000000e+00 0.0000e+00 1.0000e+00
        2 -1    0    0  503    0 -0.0000000000e+00 -0.0000000000e+00 -8.3200626725e+02 8.3200626725e+02 0.0000000000e+00 0.0000e+00 -1.0000e+00
       -6  2    1    2    0  502 -4.7507723353e+01 +1.1893366633e+02 -1.8330277442e+02 2.8237690047e+02 1.7243725248e+02 0.0000e+00 0.0000e+00
      -24  2    3    3    0    0 -7.3879953038e+01 +3.7089565427e+01 -1.3485684768e+02 1.7805735686e+02 8.1756771237e+01 0.0000e+00 0.0000e+00
        6  2    1    2  501    0 +8.9980282865e+01 +3.9931625295e+00 -3.6977241800e+02 4.1984383249e+02 1.7727043158e+02 0.0000e+00 0.0000e+00
       24  2    5    5    0    0 +1.1781964744e+02 -1.8442530555e+00 -1.8408195451e+02 2.3192857533e+02 7.7587547244e+01 0.0000e+00 0.0000e+00
        5  1    5    5  501    0 -2.7839364574e+01 +5.8374155850e+00 -1.8569046349e+02 1.8791525716e+02 4.7000000000e+00 0.0000e+00 -1.0000e+00
      -13  1    6    6    0    0 +5.2631521749e+01 -3.8609855826e+01 -7.2312712559e+01 9.7416253501e+01 0.0000000000e+00 0.0000e+00 1.0000e+00
       14  1    6    6    0    0 +6.5188125691e+01 +3.6765602770e+01 -1.1176924195e+02 1.3451232183e+02 0.0000000000e+00 0.0000e+00 -1.0000e+00
       -5  1    3    3    0  504 +2.9457057665e+01 +4.2122603916e+01 -3.4608137066e+01 6.2143745929e+01 4.7000000000e+00 0.0000e+00 1.0000e+00
       13  1    4    4    0    0 -2.7716059748e+01 -2.5494998796e+01 -3.4308167978e+01 5.0943354047e+01 0.0000000000e+00 0.0000e+00 -1.0000e+00
      -14  1    4    4    0    0 -4.6163893291e+01 +6.2584564222e+01 -1.0054867970e+02 1.2711400282e+02 0.0000000000e+00 0.0000e+00 1.0000e+00
       21  1    3    3  504  502 -3.0848279796e+00 +3.9721496989e+01 -1.3837789679e+01 4.2175797680e+01 0.0000000000e+00 0.0000e+00 1.0000e+00
        2  1    1    2  502    0 -4.2472559512e+01 -1.2292682886e+02 -1.8366557616e+02 2.2505103295e+02 0.0000000000e+00 0.0000e+00 -1.0000e+00
<mgrwt>
<rscale>  4 0.20093610E+03</rscale>
<asrwt>0</asrwt>
<pdfrwt beam="1">  1       21 0.14656231E-01 0.20200147E+03</pdfrwt>
<pdfrwt beam="2">  1        2 0.12800096E+00 0.20200147E+03</pdfrwt>
<totfact> 0.17431245E+04</totfact>
</mgrwt>
</event>
<event>
14      3 +1.4674046e+01 1.75087600e+02 7.54677100e-03 1.17335500e-01
        2 -1    0    0  504    0 -0.0000000000e+00 +0.0000000000e+00 +1.3603131323e+03 1.3603131323e+03 0.0000000000e+00 0.0000e+00 1.0000e+00
       21 -1    0    0  501  503 +0.0000000000e+00 -0.0000000000e+00 -5.4727263881e+02 5.4727263881e+02 0.0000000000e+00 0.0000e+00 -1.0000e+00
        6  2    1    2  501    0 +1.5444571652e+01 +7.1453792434e+01 +5.1225685016e+02 5.4465996433e+02 1.7000946140e+02 0.0000e+00 0.0000e+00
       24  2    3    3    0    0 +4.1429303104e+01 +3.5697718517e+01 +1.4081702601e+02 1.7056995370e+02 7.9208333073e+01 0.0000e+00 0.0000e+00
       -6  2    1    2    0  502 -1.9777226871e+01 +3.7617672841e+01 +2.4633887533e+02 3.0392123427e+02 1.7285556724e+02 0.0000e+00 0.0000e+00
      -24  2    5    5    0    0 -5.1486219168e+01 +3.3942684867e+01 +2.5207107447e+02 2.7115060968e+02 7.8612275897e+01 0.0000e+00 0.0000e+00
        5  1    3    3  501    0 -2.5984731453e+01 +3.5756073918e+01 +3.7143982415e+02 3.7409001063e+02 4.7000000000e+00 0.0000e+00 -1.0000e+00
      -13  1    4    4    0    0 +6.2647619629e+01 +1.4497226380e+01 +1.1097509245e+02 1.2825897614e+02 0.0000000000e+00 0.0000e+00 1.0000e+00
       14  1    4    4    0    0 -2.1218316525e+01 +2.1200492137e+01 +2.9841933562e+01 4.2310977556e+01 0.0000000000e+00 0.0000e+00 -1.0000e+00
       -5  1    5    5    0  502 +3.1708992298e+01 +3.6749879737e+00 -5.7321991391e+00 3.2770624591e+01 4.7000000000e+00 0.0000e+00 1.0000e+00
       13  1    6    6    0    0 -4.6054362822e+00 +4.9603972211e+01 +1.1085862786e+02 1.2153764632e+02 0.0000000000e+00 0.0000e+00 -1.0000e+00
      -14  1    6    6    0    0 -4.6880782886e+01 -1.5661287344e+01 +1.4121244662e+02 1.4961296336e+02 0.0000000000e+00 0.0000e+00 1.0000e+00
       21  1    1    2  504  503 -3.3391514039e+01 -2.2691071513e+01 -4.9746657596e+02 4.9910206585e+02 0.0000000000e+00 0.0000e+00 -1.0000e+00
        2  1    1    2  502    0 +3.7724169258e+01 -8.6380393762e+01 +5.5191134397e+02 5.5990250667e+02 0.0000000000e+00 0.0000e+00 1.0000e+00
<mgrwt>
<rscale>  4 0.17438103E+03</rscale>
<asrwt>0</asrwt>
<pdfrwt beam="2">  1       21 0.84195791E-01 0.17508760E+03</pdfrwt>
<pdfrwt beam="1">  1        2 0.20927894E+00 0.17508760E+03</pdfrwt>
<totfact> 0.25913891E+02</totfact>
</mgrwt>
</event>
<event>
13      2 +1.4674046e+01 1.96372700e+02 7.54677100e-03 1.15304300e-01
       21 -1    0    0  504  502 +0.0000000000e+00 +0.0000000000e+00 +1.3068026854e+02 1.3068026854e+02 0.0000000000e+00 0.0000e+00 1.0000e+00
       21 -1    0    0  501  503 -0.0000000000e+00 -0.0000000000e+00 -4.3474437926e+02 4.3474437926e+02 0.0000000000e+00 0.0000e+00 -1.0000e+00
        6  2    1    2  501    0 -5.8943631566e+01 -8.1905007984e+01 -4.0559389772e+01 2.0401754613e+02 1.7261318893e+02 0.0000e+00 0.0000e+00
       24  2    3    3    0    0 -7.7049058667e+01 +4.4253167386e-01 -4.3702896595e+01 1.1951372720e+02 8.0229885591e+01 0.0000e+00 0.0000e+00
       -6  2    1    2    0  502 +7.5571776659e+01 +4.2522692827e+01 -1.6235516489e+02 2.5159501379e+02 1.7152719483e+02 0.0000e+00 0.0000e+00
      -24  2    5    5    0    0 +4.6111926416e+01 +1.7305702154e+01 -1.2044902200e+01 9.6291940851e+01 8.1861230867e+01 0.0000e+00 0.0000e+00
        5  1    3    3  501    0 +1.8105427101e+01 -8.2347539658e+01 +3.1435068228e+00 8.4503818928e+01 4.7000000000e+00 0.0000e+00 -1.0000e+00
      -13  1    4    4    0    0 -6.0739798214e+01 -2.9801486949e+01 -5.0576836157e+01 8.4471699800e+01 0.0000000000e+00 0.0000e+00 1.0000e+00
       14  1    4    4    0    0 -1.6309260453e+01 +3.0244018623e+01 +6.8739395620e+00 3.5042027397e+01 0.0000000000e+00 0.0000e+00 -1.0000e+00
       -5  1    5    5    0  502 +2.9459850243e+01 +2.5216990673e+01 -1.5031026269e+02 1.5530307294e+02 4.7000000000e+00 0.0000e+00 1.0000e+00
       13  1    6    6    0    0 +2.0307857733e+01 +3.6193205627e+01 -3.7100718713e+01 5.5667050831e+01 0.0000000000e+00 0.0000e+00 -1.0000e+00
      -14  1    6    6    0    0 +2.5804068683e+01 -1.8887503472e+01 +2.5055816512e+01 4.0624890020e+01 0.0000000000e+00 0.0000e+00 1.0000e+00
       21  1    1    2  504  503 -1.6628145093e+01 +3.9382315157e+01 -1.0114955605e+02 1.0981208789e+02 0.0000000000e+00 0.0000e+00 1.0000e+00
<mgrwt>
<rscale>  3 0.19613375E+03</rscale>
<asrwt>0</asrwt>
<pdfrwt beam="1">  1       21 0.20104657E-01 0.19637267E+03</pdfrwt>
<pdfrwt beam="2">  1       21 0.66883750E-01 0.19637267E+03</pdfrwt>
<totfact> 0.46724418E+04</totfact>
</mgrwt>
</event>
<event>
12      1 +1.4674046e+01 1.81956100e+02 7.54677100e-03 1.16592300e-01
        2 -1    0    0  502    0 +0.0000000000e+00 +0.0000000000e+00 +9.9999470635e+02 9.9999470635e+02 0.0000000000e+00 0.0000e+00 1.0000e+00
       -2 -1    0    0    0  501 -0.0000000000e+00 -0.0000000000e+00 -3.3132929974e+01 3.3132929974e+01 0.0000000000e+00 0.0000e+00 -1.0000e+00
        6  2    1    2  502    0 -2.8126175509e+01 +5.0767373670e+01 +4.9832295506e+02 5.3060764469e+02 1.7277238521e+02 0.0000e+00 0.0000e+00
       24  2    3    3    0    0 -1.8482933286e+01 -4.1649070297e+01 +2.6292643391e+02 2.7749224926e+02 7.6127359548e+01 0.0000e+00 0.0000e+00
       -6  2    1    2    0  501 +2.8126175509e+01 -5.0767373670e+01 +4.6853882132e+02 5.0251999163e+02 1.7213165580e+02 0.0000e+00 0.0000e+00
      -24  2    5    5    0    0 +5.7533548511e+01 +2.0678271178e+01 +1.6120774957e+02 1.8559136967e+02 6.8691468699e+01 0.0000e+00 0.0000e+00
        5  1    3    3  502    0 -9.6432422236e+00 +9.2416443967e+01 +2.3539652115e+02 2.5311539543e+02 4.7000000000e+00 0.0000e+00 -1.0000e+00
      -13  1    4    4    0    0 -1.4484312182e+01 -5.0175416929e+01 +2.6293867904e+02 2.6807483414e+02 0.0000000000e+00 0.0000e+00 1.0000e+00
       14  1    4    4    0    0 -3.9986211035e+00 +8.5263466319e+00 -1.2245130913e-02 9.4174151209e+00 0.0000000000e+00 0.0000e+00 -1.0000e+00
       -5  1    5    5    0  501 -2.9407373002e+01 -7.1445644847e+01 +3.0733107175e+02 3.1692862196e+02 4.7000000000e+00 0.0000e+00 1.0000e+00
       13  1    6    6    0    0 +5.0455876861e+01 +4.3257379266e+01 +1.3369436541e+02 1.4930230980e+02 0.0000000000e+00 0.0000e+00 -1.0000e+00
      -14  1    6    6    0    0 +7.0776716508e+00 -2.2579108089e+01 +2.7513384159e+01 3.6289059866e+01 0.0000000000e+00 0.0000e+00 1.0000e+00
<mgrwt>
<rscale>  2 0.18195611E+03</rscale>
<asrwt>0</asrwt>
<pdfrwt beam="1">  1        2 0.15384532E+00 0.18195611E+03</pdfrwt>
<pdfrwt beam="2">  1       -2 0.50973746E-02 0.18195611E+03</pdfrwt>
<totfact> 0.49240278E+03</totfact>
</mgrwt>
</event>
<event>
12      1 +1.4674046e+01 2.18949000e+02 7.54677100e-03 1.13470600e-01
       21 -1    0    0  501  502 +0.0000000000e+00 +0.0000000000e+00 +4.8698665902e+02 4.8698665902e+02 0.0000000000e+00 0.0000e+00 -1.0000e+00
       21 -1    0    0  502  503 -0.0000000000e+00 -0.0000000000e+00 -1.0288918399e+02 1.0288918399e+02 0.0000000000e+00 0.0000e+00 -1.0000e+00
       -6  2    1    2    0  503 -1.4278347258e+01 +1.3377116354e+02 +1.3019030022e+02 2.5473160743e+02 1.7274282085e+02 0.0000e+00 0.0000e+00
      -24  2    3    3    0    0 +1.9705007319e+01 -3.5229585321e+00 +4.1641325515e+01 8.7795825567e+01 7.4655264022e+01 0.0000e+00 0.0000e+00
        6  2    1    2  501    0 +1.4278347258e+01 -1.3377116354e+02 +2.5390717481e+02 3.3514423558e+02 1.7249408636e+02 0.0000e+00 0.0000e+00
       24  2    5    5    0    0 +7.0530161352e+00 -2.3158980025e+01 +1.8554972159e+02 2.0482887976e+02 8.3307187017e+01 0.0000e+00 0.0000e+00
        5  1    5    5  501    0 +7.2253311224e+00 -1.1061218352e+02 +6.8357453215e+01 1.3031535582e+02 4.7000000000e+00 0.0000e+00 -1.0000e+00
      -13  1    6    6    0    0 -2.8148033587e-01 -5.0588455547e+01 +1.5534178653e+02 1.6337178982e+02 0.0000000000e+00 0.0000e+00 1.0000e+00
       14  1    6    6    0    0 +7.3344964710e+00 +2.7429475522e+01 +3.0207935064e+01 4.1457089945e+01 0.0000000000e+00 0.0000e+00 -1.0000e+00
       -5  1    3    3    0  503 -3.3983354577e+01 +1.3729412207e+02 +8.8548974702e+01 1.6693578186e+02 4.7000000000e+00 0.0000e+00 1.0000e+00
       13  1    4    4    0    0 -2.0275478919e+01 +1.2262102887e+01 +3.7836906459e+01 4.4643988431e+01 0.0000000000e+00 0.0000e+00 -1.0000e+00
      -14  1    4    4    0    0 +3.9980486238e+01 -1.5785061420e+01 +3.8044190554e+00 4.3151837136e+01 0.0000000000e+00 0.0000e+00 1.0000e+00
<mgrwt>
<rscale>  2 0.21889997E+03</rscale>
<asrwt>0</asrwt>
<pdfrwt beam="1">  1       21 0.74921024E-01 0.21894903E+03</pdfrwt>
<pdfrwt beam="2">  1       21 0.15829105E-01 0.21894903E+03</pdfrwt>
<totfact> 0.55973255E+04</totfact>
</mgrwt>
</event>
<event>
13      3 +1.4674046e+01 2.31883800e+02 7.54677100e-03 1.13065800e-01
        2 -1    0    0  504    0 -0.0000000000e+00 +0.0000000000e+00 +2.6799683997e+03 2.6799683997e+03 0.0000000000e+00 0.0000e+00 1.0000e+00
       21 -1    0    0  501  503 +0.0000000000e+00 -0.0000000000e+00 -1.0494742436e+03 1.0494742436e+03 0.0000000000e+00 0.0000e+00 1.0000e+00
       24  2    1    2    0    0 -8.9259337066e+01 -6.7772016452e+01 +1.5510272828e+02 2.0807636819e+02 8.1722966251e+01 0.0000e+00 0.0000e+00
       -6  2    1    2    0  502 +1.2249320305e+01 +1.1391743558e+02 -6.9581060859e+02 7.2668961971e+02 1.7549408077e+02 0.0000e+00 0.0000e+00
      -24  2    4    4    0    0 +5.1854069762e+01 +7.5249887838e+01 -3.0993287935e+02 3.3683397033e+02 9.5117525702e+01 0.0000e+00 0.0000e+00
        5  1    1    2  501    0 +7.1400919202e+01 +2.2014536684e+01 +7.7074459830e+01 1.0744902720e+02 4.7000000000e+00 0.0000e+00 -1.0000e+00
      -13  1    3    3    0    0 -2.7180427276e+01 -2.6341179877e+01 +2.1801756819e+00 3.7912881060e+01 0.0000000000e+00 0.0000e+00 1.0000e+00
       14  1    3    3    0    0 -6.2078909790e+01 -4.1430836574e+01 +1.5292255260e+02 1.7016348713e+02 0.0000000000e+00 0.0000e+00 -1.0000e+00
       -5  1    4    4    0  502 -3.9604749457e+01 +3.8667547746e+01 -3.8587772924e+02 3.8985564938e+02 4.7000000000e+00 0.0000e+00 1.0000e+00
       13  1    5    5    0    0 +7.7762388919e+01 +3.8660716405e+01 -2.1362884814e+02 2.3060556125e+02 0.0000000000e+00 0.0000e+00 -1.0000e+00
      -14  1    5    5    0    0 -2.5908319157e+01 +3.6589171433e+01 -9.6304031214e+01 1.0622840908e+02 0.0000000000e+00 0.0000e+00 1.0000e+00
       21  1    1    2  504  503 -2.2572830034e+01 -8.9159579346e+00 -2.9560252175e+02 2.9659716423e+02 0.0000000000e+00 0.0000e+00 1.0000e+00
        2  1    1    2  502    0 +2.8181927592e+01 -5.9243997881e+01 +2.3897300984e+03 2.3906304640e+03 0.0000000000e+00 0.0000e+00 1.0000e+00
<mgrwt>
<rscale>  4 0.22438155E+03</rscale>
<asrwt>0</asrwt>
<pdfrwt beam="2">  1       21 0.16145758E+00 0.23188378E+03</pdfrwt>
<pdfrwt beam="1">  1        2 0.41230283E+00 0.23188378E+03</pdfrwt>
<totfact> 0.97455473E+00</totfact>
</mgrwt>
</event>
<event>
12      1 +1.4674046e+01 2.08823500e+02 7.54677100e-03 1.14260100e-01
       21 -1    0    0  501  502 +0.0000000000e+00 +0.0000000000e+00 +9.5148789863e+01 9.5148789863e+01 0.0000000000e+00 0.0000e+00 -1.0000e+00
       21 -1    0    0  502  503 -0.0000000000e+00 -0.0000000000e+00 -5.0301437124e+02 5.0301437124e+02 0.0000000000e+00 0.0000e+00 -1.0000e+00
       -6  2    1    2    0  503 -1.2779011191e+01 -1.1592492558e+02 -2.9440721730e+02 3.6094719110e+02 1.7322059250e+02 0.0000e+00 0.0000e+00
      -24  2    3    3    0    0 -6.6910600999e+01 -9.6513190873e+01 -1.6070746379e+02 2.1532865331e+02 8.2144479303e+01 0.0000e+00 0.0000e+00
        6  2    1    2  501    0 +1.2779011191e+01 +1.1592492558e+02 -1.1345836408e+02 2.3721597001e+02 1.7261727766e+02 0.0000e+00 0.0000e+00
       24  2    5    5    0    0 +5.9345374766e+01 +8.3392927357e+01 -1.2744277227e+02 1.7852686712e+02 7.1790864613e+01 0.0000e+00 0.0000e+00
        5  1    5    5  501    0 -4.6566363575e+01 +3.2531998224e+01 +1.3984408186e+01 5.8689102884e+01 4.7000000000e+00 0.0000e+00 -1.0000e+00
      -13  1    6    6    0    0 +5.1040674814e+01 +1.2003585939e+01 -4.4442208051e+01 6.8733881146e+01 0.0000000000e+00 0.0000e+00 1.0000e+00
       14  1    6    6    0    0 +8.3046999512e+00 +7.1389341417e+01 -8.3000564217e+01 1.0979298598e+02 0.0000000000e+00 0.0000e+00 -1.0000e+00
       -5  1    3    3    0  503 +5.4131589808e+01 -1.9411734708e+01 -1.3369975351e+02 1.4561853779e+02 4.7000000000e+00 0.0000e+00 1.0000e+00
       13  1    4    4    0    0 -7.5791555093e+00 -8.0745146818e+01 -7.9913294219e+01 1.1385673861e+02 0.0000000000e+00 0.0000e+00 -1.0000e+00
      -14  1    4    4    0    0 -5.9331445490e+01 -1.5768044055e+01 -8.0794169568e+01 1.0147191470e+02 0.0000000000e+00 0.0000e+00 1.0000e+00
<mgrwt>
<rscale>  2 0.20869837E+03</rscale>
<asrwt>0</asrwt>
<pdfrwt beam="1">  1       21 0.14638275E-01 0.20882353E+03</pdfrwt>
<pdfrwt beam="2">  1       21 0.77386827E-01 0.20882353E+03</pdfrwt>
<totfact> 0.60321826E+04</totfact>
</mgrwt>
</event>
<event>
14      3 +1.4674046e+01 1.97111900e+02 7.54677100e-03 1.15225400e-01
       21 -1    0    0  505  502 +0.0000000000e+00 +0.0000000000e+00 +1.6137119145e+03 1.6137119145e+03 0.0000000000e+00 0.0000e+00 -1.0000e+00
       21 -1    0    0  504  503 -0.0000000000e+00 -0.0000000000e+00 -6.6275122228e+01 6.6275122228e+01 0.0000000000e+00 0.0000e+00 1.0000e+00
        6  2    1    2  501    0 -9.1105742359e+01 +1.2466304048e+01 +3.3477952374e+02 3.8788551956e+02 1.7298029292e+02 0.0000e+00 0.0000e+00
       24  2    3    3    0    0 -9.9231349781e+00 -3.0024453349e+01 +7.0766412950e+01 1.0838401174e+02 7.5757985662e+01 0.0000e+00 0.0000e+00
       -6  2    1    2    0  502 +1.0844035901e+02 -1.3994766018e+01 +4.7375774345e+02 5.1596751500e+02 1.7268732473e+02 0.0000e+00 0.0000e+00
      -24  2    5    5    0    0 +7.5761881110e+01 +5.4516100900e+01 +1.9723780359e+02 2.2918015659e+02 7.0063721891e+01 0.0000e+00 0.0000e+00
        5  1    3    3  501    0 -8.1182607381e+01 +4.2490757397e+01 +2.6401311079e+02 2.7950150782e+02 4.7000000000e+00 0.0000e+00 -1.0000e+00
      -13  1    4    4    0    0 -2.5055369790e+01 -2.9699327172e+01 +3.0269142714e+00 3.8974142707e+01 0.0000000000e+00 0.0000e+00 1.0000e+00
       14  1    4    4    0    0 +1.5132234812e+01 -3.2512617748e-01 +6.7739498679e+01 6.9409869029e+01 0.0000000000e+00 0.0000e+00 -1.0000e+00
       -5  1    5    5    0  502 +3.2678477900e+01 -6.8510866918e+01 +2.7651993986e+02 2.8678735841e+02 4.7000000000e+00 0.0000e+00 1.0000e+00
       13  1    6    6    0    0 +1.3872666591e+01 +4.8405822270e+01 +1.1915251739e+02 1.2935569918e+02 0.0000000000e+00 0.0000e+00 -1.0000e+00
      -14  1    6    6    0    0 +6.1889214519e+01 +6.1102786300e+00 +7.8085286196e+01 9.9824457419e+01 0.0000000000e+00 0.0000e+00 1.0000e+00
       21  1    1    2  504  501 +2.6135264891e+01 -6.5001237335e+00 -7.8695714852e+00 2.8057687624e+01 0.0000000000e+00 0.0000e+00 1.0000e+00
       21  1    1    2  505  503 -4.3469881543e+01 +8.0285857039e+00 +7.4676909656e+02 7.4807631454e+02 0.0000000000e+00 0.0000e+00 -1.0000e+00
<mgrwt>
<rscale>  4 0.19704756E+03</rscale>
<asrwt>0</asrwt>
<pdfrwt beam="1">  1       21 0.24826334E+00 0.19711186E+03</pdfrwt>
<pdfrwt beam="2">  1       21 0.10196174E-01 0.19711186E+03</pdfrwt>
<totfact> 0.53134282E+03</totfact>
</mgrwt>
</event>
<event>
12      1 +1.4674046e+01 2.79708800e+02 7.54677100e-03 1.09636900e-01
       21 -1    0    0  503  502 +0.0000000000e+00 +0.0000000000e+00 +1.1923635276e+03 1.1923635276e+03 0.0000000000e+00 0.0000e+00 1.0000e+00
       21 -1    0    0  501  503 -0.0000000000e+00 -0.0000000000e+00 -8.6203621787e+01 8.6203621787e+01 0.0000000000e+00 0.0000e+00 1.0000e+00
        6  2    1    2  501    0 +1.9612658740e+02 -9.8856203998e+01 +8.6930723908e+02 9.1204808438e+02 1.6702827586e+02 0.0000e+00 0.0000e+00
       24  2    3    3    0    0 +1.2290408046e+02 -8.3761890565e+01 +3.7096064057e+02 4.0810285315e+02 8.2551042361e+01 0.0000e+00 0.0000e+00
       -6  2    1    2    0  502 -1.9612658740e+02 +9.8856203998e+01 +2.3685266674e+02 3.6651906502e+02 1.7320176653e+02 0.0000e+00 0.0000e+00
      -24  2    5    5    0    0 -9.8003565422e+01 -1.1594810244e+01 +7.6882815468e+01 1.4871181697e+02 8.0405837668e+01 0.0000e+00 0.0000e+00
        5  1    3    3  501    0 +7.3222506937e+01 -1.5094313432e+01 +4.9834659852e+02 5.0394523122e+02 4.7000000000e+00 0.0000e+00 -1.0000e+00
      -13  1    4    4    0    0 +1.1221717785e+02 -4.1326345325e+01 +2.1388772524e+02 2.4504799700e+02 0.0000000000e+00 0.0000e+00 1.0000e+00
       14  1    4    4    0    0 +1.0686902614e+01 -4.2435545240e+01 +1.5707291532e+02 1.6305485615e+02 0.0000000000e+00 0.0000e+00 -1.0000e+00
       -5  1    5    5    0  502 -9.8123021978e+01 +1.1045101424e+02 +1.5996985127e+02 2.1780724805e+02 4.7000000000e+00 0.0000e+00 1.0000e+00
       13  1    6    6    0    0 -1.0705717221e+02 -9.4982587080e+00 +8.4482567215e+01 1.3670683671e+02 0.0000000000e+00 0.0000e+00 -1.0000e+00
      -14  1    6    6    0    0 +9.0536067914e+00 -2.0965515365e+00 -7.5997517468e+00 1.2004980254e+01 0.0000000000e+00 0.0000e+00 1.0000e+00
<mgrwt>
<rscale>  2 0.27875898E+03</rscale>
<asrwt>0</asrwt>
<pdfrwt beam="1">  1       21 0.18344053E+00 0.27970885E+03</pdfrwt>
<pdfrwt beam="2">  1       21 0.13262097E-01 0.27970885E+03</pdfrwt>
<totfact> 0.79505612E+03</totfact>
</mgrwt>
</event>
<event>
12      1 +1.4674046e+01 1.90043600e+02 7.54677100e-03 1.15863200e-01
       21 -1    0    0  501  502 +0.0000000000e+00 +0.0000000000e+00 +2.7018443876e+02 2.7018443876e+02 0.0000000000e+00 0.0000e+00 1.0000e+00
       21 -1    0    0  502  503 -0.0000000000e+00 -0.0000000000e+00 -1.3699992623e+02 1.3699992623e+02 0.0000000000e+00 0.0000e+00 1.0000e+00
       -6  2    1    2    0  503 +3.2597832507e+01 +7.1888621327e+01 +3.1739242883e+01 1.9175985359e+02 1.7185420958e+02 0.0000e+00 0.0000e+00
      -24  2    3    3    0    0 +2.0777160396e+01 -1.0254481439e+01 -3.2254804633e+01 8.6857300050e+01 7.7246186743e+01 0.0000e+00 0.0000e+00
        6  2    1    2  501    0 -3.2597832507e+01 -7.1888621327e+01 +1.0144526964e+02 2.1542451140e+02 1.7287563397e+02 0.0000e+00 0.0000e+00
       24  2    5    5    0    0 +4.2556098537e+00 -1.0560256560e+02 +4.5509998622e+01 1.4028696555e+02 8.0245003904e+01 0.0000e+00 0.0000e+00
        5  1    5    5  501    0 -3.6853442361e+01 +3.3713944276e+01 +5.5935271021e+01 7.5137545852e+01 4.7000000000e+00 0.0000e+00 -1.0000e+00
      -13  1    6    6    0    0 +3.7276947790e+01 -5.5103760785e+01 +3.2213204417e+00 6.6606097278e+01 0.0000000000e+00 0.0000e+00 1.0000e+00
       14  1    6    6    0    0 -3.3021337936e+01 -5.0498804818e+01 +4.2288678181e+01 7.3680868273e+01 0.0000000000e+00 0.0000e+00 -1.0000e+00
       -5  1    3    3    0  503 +1.1820672111e+01 +8.2143102766e+01 +6.3994047516e+01 1.0490255354e+02 4.7000000000e+00 0.0000e+00 1.0000e+00
       13  1    4    4    0    0 -1.9364344926e+01 -9.0161631697e+00 +1.4046823758e+01 2.5565255923e+01 0.0000000000e+00 0.0000e+00 -1.0000e+00
      -14  1    4    4    0    0 +4.0141505322e+01 -1.2383182697e+00 -4.6301628391e+01 6.1292044127e+01 0.0000000000e+00 0.0000e+00 1.0000e+00
<mgrwt>
<rscale>  2 0.18981102E+03</rscale>
<asrwt>0</asrwt>
<pdfrwt beam="1">  1       21 0.41566837E-01 0.19004362E+03</pdfrwt>
<pdfrwt beam="2">  1       21 0.21076912E-01 0.19004362E+03</pdfrwt>
<totfact> 0.11670860E+05</totfact>
</mgrwt>
</event>
<event>
14      3 +1.4674046e+01 2.20459700e+02 7.54677100e-03 1.13379800e-01
       21 -1    0    0  505  502 +0.0000000000e+00 +0.0000000000e+00 +3.4062395426e+02 3.4062395426e+02 0.0000000000e+00 0.0000e+00 1.0000e+00
       21 -1    0    0  504  503 -0.0000000000e+00 -0.0000000000e+00 -2.9002911547e+02 2.9002911547e+02 0.0000000000e+00 0.0000e+00 -1.0000e+00
       -6  2    1    2    0  503 +9.6698244474e+01 -8.6955082799e+01 +9.3872137300e+01 2.3610592482e+02 1.7326942219e+02 0.0000e+00 0.0000e+00
      -24  2    3    3    0    0 +1.2994143427e+02 -8.6906728772e+01 +5.3445388425e+01 1.8355571997e+02 7.9992105514e+01 0.0000e+00 0.0000e+00
        6  2    1    2  501    0 -6.7782682206e+01 +1.2502637025e+02 -6.3071810761e+01 2.3156091750e+02 1.7151186529e+02 0.0000e+00 0.0000e+00
       24  2    5    5    0    0 -8.9061366765e+01 +7.0059664899e+01 +8.9906047491e+00 1.3834502377e+02 7.8855760305e+01 0.0000e+00 0.0000e+00
        5  1    5    5  501    0 +2.1278684560e+01 +5.4966705356e+01 -7.2062415510e+01 9.3215893727e+01 4.7000000000e+00 0.0000e+00 -1.0000e+00
      -13  1    6    6    0    0 -9.3100793700e+01 +7.9202165459e+01 -3.5803980483e+00 1.2228474987e+02 0.0000000000e+00 0.0000e+00 1.0000e+00
       14  1    6    6    0    0 +4.0394269345e+00 -9.1425005607e+00 +1.2571002797e+01 1.6060273902e+01 0.0000000000e+00 0.0000e+00 -1.0000e+00
       -5  1    3    3    0  503 -3.3243189791e+01 -4.8354027127e-02 +4.0426748876e+01 5.2550204854e+01 4.7000000000e+00 0.0000e+00 1.0000e+00
       13  1    4    4    0    0 +7.7817174289e+01 -2.9991679702e+01 +6.4714746473e+01 1.0556046550e+02 0.0000000000e+00 0.0000e+00 -1.0000e+00
      -14  1    4    4    0    0 +5.2124259976e+01 -5.6915049070e+01 -1.1269358048e+01 7.7995254468e+01 0.0000000000e+00 0.0000e+00 1.0000e+00
       21  1    1    2  504  502 -1.6567189027e+01 -1.2155614591e+01 -6.7780170558e+01 7.0826423312e+01 0.0000000000e+00 0.0000e+00 -1.0000e+00
       21  1    1    2  505  501 -1.2348373242e+01 -2.5915672864e+01 +8.7574682809e+01 9.2159804095e+01 0.0000000000e+00 0.0000e+00 1.0000e+00
<mgrwt>
<rscale>  4 0.22011422E+03</rscale>
<asrwt>0</asrwt>
<pdfrwt beam="1">  1       21 0.52403685E-01 0.22045969E+03</pdfrwt>
<pdfrwt beam="2">  1       21 0.44619864E-01 0.22045969E+03</pdfrwt>
<totfact> 0.16375849E+04</totfact>
</mgrwt>
</event>
<event>
14      3 +1.4674046e+01 2.09016200e+02 7.54677100e-03 1.14277300e-01
       21 -1    0    0  501  503 +0.0000000000e+00 +0.0000000000e+00 +1.2750282891e+02 1.2750282891e+02 0.0000000000e+00 0.0000e+00 1.0000e+00
        2 -1    0    0  503    0 -0.0000000000e+00 -0.0000000000e+00 -2.1554367568e+03 2.1554367568e+03 0.0000000000e+00 0.0000e+00 1.0000e+00
        6  2    1    2  501    0 -7.6905853483e+01 -7.6150204079e+01 -6.0704861009e+01 2.1087622138e+02 1.7050025429e+02 0.0000e+00 0.0000e+00
       24  2    3    3    0    0 -6.6967009925e+01 -3.2918444727e+01 +2.6811722298e+01 1.1264685723e+02 8.0014008579e+01 0.0000e+00 0.0000e+00
       -6  2    1    2    0  502 +8.8229713450e+01 +9.8582896128e+01 -1.7439315762e+02 2.7905135851e+02 1.7307113426e+02 0.0000e+00 0.0000e+00
      -24  2    5    5    0    0 -1.1558430987e+00 +3.3230439602e+01 -2.5444879643e+01 9.0234962320e+01 7.9933149790e+01 0.0000e+00 0.0000e+00
        5  1    3    3  501    0 -9.9388435582e+00 -4.3231759352e+01 -8.7516583307e+01 9.8229364152e+01 4.7000000000e+00 0.0000e+00 -1.0000e+00
      -13  1    4    4    0    0 -3.6740077603e+01 -5.8906060724e+01 +1.9589465368e+01 7.2135320376e+01 0.0000000000e+00 0.0000e+00 1.0000e+00
       14  1    4    4    0    0 -3.0226932322e+01 +2.5987615998e+01 +7.2222569308e+00 4.0511536850e+01 0.0000000000e+00 0.0000e+00 -1.0000e+00
       -5  1    5    5    0  504 +4.5679823443e+01 +2.8245497699e+01 -4.5516045983e+01 7.0556749159e+01 4.7000000000e+00 0.0000e+00 1.0000e+00
       13  1    6    6    0    0 -9.9211462721e+00 +4.5046568978e+01 +1.3944331309e+01 4.8187829331e+01 0.0000000000e+00 0.0000e+00 -1.0000e+00
      -14  1    6    6    0    0 +8.7653031735e+00 -1.1816129375e+01 -3.9389210952e+01 4.2047132989e+01 0.0000000000e+00 0.0000e+00 1.0000e+00
       21  1    5    5  504  502 +4.3705733106e+01 +3.7106958827e+01 -1.0343223199e+02 1.1825964703e+02 0.0000000000e+00 0.0000e+00 1.0000e+00
        2  1    1    2  502    0 -1.1323859967e+01 -2.2432692050e+01 -1.7928359093e+03 1.7930120059e+03 0.0000000000e+00 0.0000e+00 1.0000e+00
<mgrwt>
<rscale>  4 0.20848322E+03</rscale>
<asrwt>0</asrwt>
<pdfrwt beam="1">  1       21 0.19615819E-01 0.20901619E+03</pdfrwt>
<pdfrwt beam="2">  1        2 0.33160567E+00 0.20901619E+03</pdfrwt>
<totfact> 0.18940668E+03</totfact>
</mgrwt>
</event>
<event>
13      3 +1.4674046e+01 1.00926700e+03 7.54677100e-03 9.72241200e-02
        2 -1    0    0  502    0 +0.0000000000e+00 +0.0000000000e+00 +1.9329237736e+03 1.9329237736e+03 0.0000000000e+00 0.0000e+00 1.0000e+00
       -2 -1    0    0    0  501 -0.0000000000e+00 -0.0000000000e+00 -9.4699535287e+02 9.4699535287e+02 0.0000000000e+00 0.0000e+00 1.0000e+00
      -24  2    1    2    0    0 +1.5783406782e+02 +3.4921435245e+02 +2.4780297244e+02 4.6343654890e+02 8.0652741970e+01 0.0000e+00 0.0000e+00
        6  2    1    2  502    0 -6.7488942105e+01 +1.3002474954e+02 +2.2982628005e+02 3.2190108270e+02 1.7128629612e+02 0.0000e+00 0.0000e+00
       24  2    4    4    0    0 +2.2737962146e+01 +9.7845678805e+01 +1.2682560929e+02 1.8116155371e+02 8.1510622530e+01 0.0000e+00 0.0000e+00
        5  1    4    4  502    0 -9.0226904251e+01 +3.2179070740e+01 +1.0300067076e+02 1.4073952899e+02 4.7000000000e+00 0.0000e+00 -1.0000e+00
      -13  1    5    5    0    0 +1.7146605479e+01 +7.4525244687e+01 +1.3555734809e+02 1.5564001027e+02 0.0000000000e+00 0.0000e+00 1.0000e+00
       14  1    5    5    0    0 +5.5913566674e+00 +2.3320434118e+01 -8.7317387999e+00 2.5521543435e+01 0.0000000000e+00 0.0000e+00 -1.0000e+00
       -5  1    1    2    0  501 -9.8123994619e+01 -4.9817470997e+02 -2.0581204348e+02 5.4789328086e+02 4.7000000000e+00 0.0000e+00 1.0000e+00
       13  1    3    3    0    0 -3.7222065762e+00 +2.2242112840e+01 +7.6693385275e-02 2.2551547336e+01 0.0000000000e+00 0.0000e+00 -1.0000e+00
      -14  1    3    3    0    0 +1.6155627440e+02 +3.2697223961e+02 +2.4772627905e+02 4.4088500157e+02 0.0000000000e+00 0.0000e+00 1.0000e+00
        2  1    1    2  503    0 -1.5509153120e+01 +1.4711336029e+01 +1.1299621289e+03 1.1301643110e+03 0.0000000000e+00 0.0000e+00 1.0000e+00
       -2  1    1    2    0  503 +2.3288022022e+01 +4.2242719434e+00 -4.1585091716e+02 4.1652390297e+02 0.0000000000e+00 0.0000e+00 1.0000e+00
<mgrwt>
<rscale>  4 0.69697940E+03</rscale>
<asrwt>0</asrwt>
<pdfrwt beam="1">  1        2 0.29737289E+00 0.10092673E+04</pdfrwt>
<pdfrwt beam="2">  1       -2 0.14569159E+00 0.10092673E+04</pdfrwt>
<totfact> 0.23459529E+00</totfact>
</mgrwt>
</event>
<event>
13      2 +1.4674046e+01 1.92032800e+02 7.54677100e-03 1.15691300e-01
       21 -1    0    0  504  502 +0.0000000000e+00 +0.0000000000e+00 +5.1340646447e+02 5.1340646447e+02 0.0000000000e+00 0.0000e+00 -1.0000e+00
       21 -1    0    0  501  503 -0.0000000000e+00 -0.0000000000e+00 -1.0394452657e+02 1.0394452657e+02 0.0000000000e+00 0.0000e+00 -1.0000e+00
        6  2    1    2  501    0 -3.1999726095e+01 -7.2099075373e+01 +2.5896735303e+02 3.2083391657e+02 1.7218609975e+02 0.0000e+00 0.0000e+00
       24  2    3    3    0    0 +1.5335446520e+01 +2.0715612654e+01 +1.3412402197e+02 1.5815898860e+02 7.9753995997e+01 0.0000e+00 0.0000e+00
       -6  2    1    2    0  502 +1.2610336374e+01 +8.7888626268e+01 +1.7466530722e+02 2.6173946428e+02 1.7354004266e+02 0.0000e+00 0.0000e+00
      -24  2    5    5    0    0 +4.6743156807e+01 +8.6262048873e+01 +5.2340493270e+01 1.3464443963e+02 7.5917943221e+01 0.0000e+00 0.0000e+00
        5  1    3    3  501    0 -4.7335172615e+01 -9.2814688027e+01 +1.2484333106e+02 1.6267492797e+02 4.7000000000e+00 0.0000e+00 -1.0000e+00
      -13  1    4    4    0    0 +4.7755216821e+01 +8.3440385951e+00 +8.7598027262e+01 1.0011792094e+02 0.0000000000e+00 0.0000e+00 1.0000e+00
       14  1    4    4    0    0 -3.2419770301e+01 +1.2371574059e+01 +4.6525994713e+01 5.8041067660e+01 0.0000000000e+00 0.0000e+00 -1.0000e+00
       -5  1    5    5    0  502 -3.4132820433e+01 +1.6265773950e+00 +1.2232481395e+02 1.2709502465e+02 4.7000000000e+00 0.0000e+00 1.0000e+00
       13  1    6    6    0    0 +4.3739771756e+01 +1.3662560180e+01 +4.0235629966e+01 6.0981465239e+01 0.0000000000e+00 0.0000e+00 -1.0000e+00
      -14  1    6    6    0    0 +3.0033850511e+00 +7.2599488692e+01 +1.2104863304e+01 7.3662974389e+01 0.0000000000e+00 0.0000e+00 1.0000e+00
       21  1    1    2  504  503 +1.9389389721e+01 -1.5789550895e+01 -2.4170722354e+01 3.4777610187e+01 0.0000000000e+00 0.0000e+00 -1.0000e+00
<mgrwt>
<rscale>  3 0.19172636E+03</rscale>
<asrwt>0</asrwt>
<pdfrwt beam="1">  1       21 0.78985609E-01 0.19203276E+03</pdfrwt>
<pdfrwt beam="2">  1       21 0.15991466E-01 0.19203276E+03</pdfrwt>
<totfact> 0.49423098E+04</totfact>
</mgrwt>
</event>
<event>
13      2 +1.4674046e+01 1.99405300e+02 7.54677100e-03 1.15040000e-01
       21 -1    0    0  503  502 +0.0000000000e+00 +0.0000000000e+00 +1.7141045104e+02 1.7141045104e+02 0.0000000000e+00 0.0000e+00 -1.0000e+00
       21 -1    0    0  501  503 -0.0000000000e+00 -0.0000000000e+00 -6.3417867796e+02 6.3417867796e+02 0.0000000000e+00 0.0000e+00 1.0000e+00
        6  2    1    2  501    0 +2.6917341111e+01 -1.2067370070e+02 -4.0957088498e+02 4.6093249728e+02 1.7153358836e+02 0.0000e+00 0.0000e+00
       24  2    3    3    0    0 -1.7092737220e+01 -5.7178736418e+01 -3.4865531046e+02 3.6243734662e+02 7.8985664225e+01 0.0000e+00 0.0000e+00
       -6  2    1    2    0  504 +1.0243797254e+01 +6.1858842628e+01 -1.4190289798e+02 2.3192325864e+02 1.7239638526e+02 0.0000e+00 0.0000e+00
      -24  2    5    5    0    0 +5.4010906911e+01 +5.2646834859e+01 -1.4300510466e+02 1.8693741827e+02 9.3841734334e+01 0.0000e+00 0.0000e+00
        5  1    3    3  501    0 +4.4010078331e+01 -6.3494964279e+01 -6.0915574516e+01 9.8495150653e+01 4.7000000000e+00 0.0000e+00 -1.0000e+00
      -13  1    4    4    0    0 +2.6432953669e+01 -4.1251629079e+01 -1.3004865371e+02 1.3897140091e+02 0.0000000000e+00 0.0000e+00 1.0000e+00
       14  1    4    4    0    0 -4.3525690889e+01 -1.5927107339e+01 -2.1860665675e+02 2.2346594571e+02 0.0000000000e+00 0.0000e+00 -1.0000e+00
       -5  1    5    5    0  504 -4.3767109658e+01 +9.2120077689e+00 +1.1022066839e+00 4.4985840378e+01 4.7000000000e+00 0.0000e+00 1.0000e+00
       13  1    6    6    0    0 +4.3298531673e+01 +4.4712965918e+01 -1.5622252081e+02 1.6816506228e+02 0.0000000000e+00 0.0000e+00 -1.0000e+00
      -14  1    6    6    0    0 +1.0712375238e+01 +7.9338689415e+00 +1.3217416144e+01 1.8772355983e+01 0.0000000000e+00 0.0000e+00 1.0000e+00
       21  1    1    2  504  502 -3.7161138365e+01 +5.8814858069e+01 +8.8705556035e+01 1.1273337308e+02 0.0000000000e+00 0.0000e+00 -1.0000e+00
<mgrwt>
<rscale>  3 0.19921868E+03</rscale>
<asrwt>0</asrwt>
<pdfrwt beam="1">  1       21 0.26370839E-01 0.19940531E+03</pdfrwt>
<pdfrwt beam="2">  1       21 0.97565950E-01 0.19940531E+03</pdfrwt>
<totfact> 0.11844719E+04</totfact>
</mgrwt>
</event>
<event>
12      2 +1.4674046e+01 2.63320900e+02 7.54677100e-03 1.11928500e-01
       21 -1    0    0  501  502 +0.0000000000e+00 +0.0000000000e+00 +2.3063237257e+02 2.3063237257e+02 0.0000000000e+00 0.0000e+00 -1.0000e+00
       21 -1    0    0  504  503 -0.0000000000e+00 -0.0000000000e+00 -1.2886426144e+03 1.2886426144e+03 0.0000000000e+00 0.0000e+00 -1.0000e+00
       -6  2    1    2    0  503 -5.8802276627e+01 -2.9868596550e+01 -5.3595735071e+02 5.6722503675e+02 1.7362062014e+02 0.0000e+00 0.0000e+00
      -24  2    3    3    0    0 -5.8541874021e+01 -7.7708589206e+01 -4.5493843098e+02 4.7301841246e+02 8.5508284326e+01 0.0000e+00 0.0000e+00
       24  2    1    2    0    0 +2.9221780090e+01 -2.2957885997e+01 -7.1284374102e+01 1.1389800411e+02 8.0686531636e+01 0.0000e+00 0.0000e+00
        5  1    1    2  501    0 -8.4944297695e-02 +7.5701105538e+01 -6.4038984113e+02 6.4486580249e+02 4.7000000000e+00 0.0000e+00 -1.0000e+00
      -13  1    5    5    0    0 +3.7765533300e+01 +2.0726523948e+01 -4.4562331675e+01 6.1980849499e+01 0.0000000000e+00 0.0000e+00 1.0000e+00
       14  1    5    5    0    0 -8.5437532102e+00 -4.3684409944e+01 -2.6722042427e+01 5.1917154608e+01 0.0000000000e+00 0.0000e+00 -1.0000e+00
       -5  1    3    3    0  503 -2.6040260556e-01 +4.7839992656e+01 -8.1018919726e+01 9.4206624291e+01 4.7000000000e+00 0.0000e+00 1.0000e+00
       13  1    4    4    0    0 -7.9249369334e+01 -4.5927778333e+01 -3.2166023452e+02 3.3444749937e+02 0.0000000000e+00 0.0000e+00 -1.0000e+00
      -14  1    4    4    0    0 +2.0707495313e+01 -3.1780810872e+01 -1.3327819646e+02 1.3857091309e+02 0.0000000000e+00 0.0000e+00 1.0000e+00
       21  1    1    2  504  502 +2.9665440835e+01 -2.2874622991e+01 +1.8962132412e+02 1.9328614362e+02 0.0000000000e+00 0.0000e+00 -1.0000e+00
<mgrwt>
<rscale>  3 0.24076413E+03</rscale>
<asrwt>0</asrwt>
<pdfrwt beam="1">  1       21 0.35481902E-01 0.26332095E+03</pdfrwt>
<pdfrwt beam="2">  1       21 0.19825272E+00 0.26332095E+03</pdfrwt>
<totfact> 0.98532248E+02</totfact>
</mgrwt>
</event>
<event>
14      3 +1.4674046e+01 2.24324700e+02 7.54677100e-03 1.13079200e-01
       -1 -1    0    0    0  501 -0.0000000000e+00 +0.0000000000e+00 +2.2113154611e+02 2.2113154611e+02 0.0000000000e+00 0.0000e+00 1.0000e+00
       21 -1    0    0  502  503 +0.0000000000e+00 -0.0000000000e+00 -3.8690472530e+02 3.8690472530e+02 0.0000000000e+00 0.0000e+00 1.0000e+00
       -6  2    1    2    0  504 +1.2720618864e+02 +5.2542814488e+01 -1.0981252296e+02 2.4682599212e+02 1.7298010986e+02 0.0000e+00 0.0000e+00
      -24  2    3    3    0    0 +9.2206994337e+01 +9.2502799215e+01 -3.9724288889e+01 1.5875673224e+02 8.1035691136e+01 0.0000e+00 0.0000e+00
        6  2    1    2  502    0 -1.2934484495e+02 -6.9418025709e+01 -1.1907349149e+02 2.5666815289e+02 1.7364070123e+02 0.0000e+00 0.0000e+00
       24  2    5    5    0    0 -7.1721486221e+01 -4.5223918577e+01 -1.4726674820e+02 1.8794584199e+02 8.0293025844e+01 0.0000e+00 0.0000e+00
        5  1    5    5  502    0 -5.7623358731e+01 -2.4194107132e+01 +2.8193256709e+01 6.8722310898e+01 4.7000000000e+00 0.0000e+00 -1.0000e+00
      -13  1    6    6    0    0 -1.8981315909e+01 -4.5868081072e+01 -1.1709302791e+02 1.2718077056e+02 0.0000000000e+00 0.0000e+00 1.0000e+00
       14  1    6    6    0    0 -5.2740170312e+01 +6.4416249493e-01 -3.0173720287e+01 6.0765071429e+01 0.0000000000e+00 0.0000e+00 -1.0000e+00
       -5  1    3    3    0  504 +3.4999194300e+01 -3.9959984727e+01 -7.0088234066e+01 8.8069259879e+01 4.7000000000e+00 0.0000e+00 1.0000e+00
       13  1    4    4    0    0 +3.6048772333e+01 +3.0675112341e+01 -5.6351157446e+01 7.3592998644e+01 0.0000000000e+00 0.0000e+00 -1.0000e+00
      -14  1    4    4    0    0 +5.6158222004e+01 +6.1827686874e+01 +1.6626868557e+01 8.5163733600e+01 0.0000000000e+00 0.0000e+00 1.0000e+00
       21  1    1    2  504  501 +3.6272350013e+01 -1.2412377499e+01 +3.0392800447e+01 4.8923131642e+01 0.0000000000e+00 0.0000e+00 1.0000e+00
       -1  1    1    2    0  503 -3.4133693698e+01 +2.9287588720e+01 +3.2720034811e+01 5.5618994746e+01 0.0000000000e+00 0.0000e+00 1.0000e+00
<mgrwt>
<rscale>  4 0.22419682E+03</rscale>
<asrwt>0</asrwt>
<pdfrwt beam="2">  1       21 0.59523804E-01 0.22432466E+03</pdfrwt>
<pdfrwt beam="1">  1       -1 0.34020238E-01 0.22432466E+03</pdfrwt>
<totfact> 0.19662161E+03</totfact>
</mgrwt>
</event>
<event>
13      2 +1.4674046e+01 2.26155100e+02 7.54677100e-03 1.13117700e-01
       21 -1    0    0  503  502 +0.0000000000e+00 +0.0000000000e+00 +2.4276093324e+02 2.4276093324e+02 0.0000000000e+00 0.0000e+00 -1.0000e+00
       21 -1    0    0  504  503 -0.0000000000e+00 -0.0000000000e+00 -7.7073360032e+02 7.7073360032e+02 0.0000000000e+00 0.0000e+00 1.0000e+00
        6  2    1    2  501    0 +6.5525484164e+01 +1.3174276381e+02 +5.1147364690e+01 2.3325477236e+02 1.7361448967e+02 0.0000e+00 0.0000e+00
       24  2    3    3    0    0 +1.1945391333e+01 +1.2053910715e+02 -1.6098087791e+01 1.4641935822e+02 8.0666667863e+01 0.0000e+00 0.0000e+00
       -6  2    1    2    0  502 -4.3030545654e+01 -1.3649167873e+02 -1.5037208530e+01 2.1568860679e+02 1.6066689528e+02 0.0000e+00 0.0000e+00
      -24  2    5    5    0    0 -4.9280904558e+01 -1.8112740692e+01 -1.2073282868e+01 9.7014621385e+01 8.0680813542e+01 0.0000e+00 0.0000e+00
        5  1    3    3  501    0 +5.3580092830e+01 +1.1203656661e+01 +6.7245452481e+01 8.6835414145e+01 4.7000000000e+00 0.0000e+00 -1.0000e+00
      -13  1    4    4    0    0 +3.1042407126e+01 +4.9898326931e+01 -3.8064352739e+01 7.0016919528e+01 0.0000000000e+00 0.0000e+00 1.0000e+00
       14  1    4    4    0    0 -1.9097015793e+01 +7.0640780220e+01 +2.1966264948e+01 7.6402438692e+01 0.0000000000e+00 0.0000e+00 -1.0000e+00
       -5  1    5    5    0  502 +6.2503589044e+00 -1.1837893804e+02 -2.9639256619e+00 1.1867398541e+02 4.7000000000e+00 0.0000e+00 1.0000e+00
       13  1    6    6    0    0 -1.9304545212e+01 -3.2153759219e+01 -3.9175327730e+01 5.4233163291e+01 0.0000000000e+00 0.0000e+00 -1.0000e+00
      -14  1    6    6    0    0 -2.9976359346e+01 +1.4041018527e+01 +2.7102044862e+01 4.2781458094e+01 0.0000000000e+00 0.0000e+00 1.0000e+00
       21  1    1    2  504  501 -2.2494938510e+01 +4.7489149184e+00 -5.6408282324e+02 5.6455115440e+02 0.0000000000e+00 0.0000e+00 1.0000e+00
<mgrwt>
<rscale>  3 0.22366933E+03</rscale>
<asrwt>0</asrwt>
<pdfrwt beam="1">  1       21 0.37347836E-01 0.22615512E+03</pdfrwt>
<pdfrwt beam="2">  1       21 0.11857440E+00 0.22615512E+03</pdfrwt>
<totfact> 0.36612443E+03</totfact>
</mgrwt>
</event>
<event>
13      2 +1.4674046e+01 1.94589600e+02 7.54677100e-03 1.15450600e-01
       21 -1    0    0  501  502 +0.0000000000e+00 +0.0000000000e+00 +5.6580101139e+02 5.6580101139e+02 0.0000000000e+00 0.0000e+00 -1.0000e+00
       21 -1    0    0  504  503 -0.0000000000e+00 -0.0000000000e+00 -1.1619100632e+02 1.1619100632e+02 0.0000000000e+00 0.0000e+00 -1.0000e+00
       -6  2    1    2    0  503 -5.8249732005e+01 -6.5504677550e+01 +4.0533862948e+02 4.4903503445e+02 1.7218932475e+02 0.0000e+00 0.0000e+00
      -24  2    3    3    0    0 -8.9444221195e+01 -3.1786557578e+00 +2.1949559119e+02 2.5049699269e+02 8.0994174080e+01 0.0000e+00 0.0000e+00
        6  2    1    2  501    0 +5.0422341979e+01 +9.1319459388e+01 +3.2021998650e+01 2.0333067347e+02 1.7157009688e+02 0.0000e+00 0.0000e+00
       24  2    5    5    0    0 +5.4249369506e+00 -2.2807696788e+01 +8.8707314111e+00 7.8399310671e+01 7.4284191214e+01 0.0000e+00 0.0000e+00
        5  1    5    5  501    0 +4.4997405029e+01 +1.1412715618e+02 +2.3151267239e+01 1.2493136280e+02 4.7000000000e+00 0.0000e+00 -1.0000e+00
      -13  1    6    6    0    0 +2.2313466953e+01 -4.7457233467e+00 +3.5412084066e+01 4.2123964622e+01 0.0000000000e+00 0.0000e+00 1.0000e+00
       14  1    6    6    0    0 -1.6888530003e+01 -1.8061973441e+01 -2.6541352655e+01 3.6275346049e+01 0.0000000000e+00 0.0000e+00 -1.0000e+00
       -5  1    3    3    0  503 +3.1194489189e+01 -6.2326021792e+01 +1.8584303828e+02 1.9853804176e+02 4.7000000000e+00 0.0000e+00 1.0000e+00
       13  1    4    4    0    0 +4.9251756600e+00 +2.2375618174e+01 +3.9562993952e+01 4.5718225407e+01 0.0000000000e+00 0.0000e+00 -1.0000e+00
      -14  1    4    4    0    0 -9.4369396855e+01 -2.5554273932e+01 +1.7993259724e+02 2.0477876728e+02 0.0000000000e+00 0.0000e+00 1.0000e+00
       21  1    1    2  504  502 +7.8273900263e+00 -2.5814781838e+01 +1.2249376946e+01 2.9626309786e+01 0.0000000000e+00 0.0000e+00 1.0000e+00
<mgrwt>
<rscale>  3 0.19445254E+03</rscale>
<asrwt>0</asrwt>
<pdfrwt beam="1">  1       21 0.87046308E-01 0.19458962E+03</pdfrwt>
<pdfrwt beam="2">  1       21 0.17875540E-01 0.19458962E+03</pdfrwt>
<totfact> 0.32233665E+04</totfact>
</mgrwt>
</event>
<event>
13      2 +1.4674046e+01 1.77251200e+02 7.54677100e-03 1.17059900e-01
        3 -1    0    0  503    0 -0.0000000000e+00 +0.0000000000e+00 +1.0891344010e+02 1.0891344010e+02 0.0000000000e+00 0.0000e+00 1.0000e+00
       21 -1    0    0  501  503 +0.0000000000e+00 -0.0000000000e+00 -1.8696355699e+03 1.8696355699e+03 0.0000000000e+00 0.0000e+00 -1.0000e+00
       -6  2    1    2    0  502 +8.2297927955e+01 +2.4865404241e+01 -7.2199348511e+02 7.4719348853e+02 1.7214029012e+02 0.0000e+00 0.0000e+00
      -24  2    3    3    0    0 +1.1673675064e+02 -9.7923650104e+00 -5.1044114038e+02 5.3002148748e+02 8.1542995030e+01 0.0000e+00 0.0000e+00
        6  2    1    2  501    0 -1.6845509581e+01 +9.7310670671e-01 -1.1145221769e+03 1.1279325684e+03 1.7259049220e+02 0.0000e+00 0.0000e+00
       24  2    5    5    0    0 +4.8792809668e+01 +3.1064532465e+01 -5.5881921761e+02 5.6753828597e+02 8.0467661908e+01 0.0000e+00 0.0000e+00
        5  1    5    5  501    0 -6.5638319248e+01 -3.0091425759e+01 -5.5570295926e+02 5.6039428243e+02 4.7000000000e+00 0.0000e+00 -1.0000e+00
      -13  1    6    6    0    0 +1.6911626418e+01 +5.1618127879e+01 -2.2017480970e+02 2.2677605927e+02 0.0000000000e+00 0.0000e+00 1.0000e+00
       14  1    6    6    0    0 +3.1881183250e+01 -2.0553595413e+01 -3.3864440792e+02 3.4076222670e+02 0.0000000000e+00 0.0000e+00 -1.0000e+00
       -5  1    3    3    0  502 -3.4438822683e+01 +3.4657769251e+01 -2.1155234473e+02 2.1717200105e+02 4.7000000000e+00 0.0000e+00 1.0000e+00
       13  1    4    4    0    0 +8.0341494453e+01 +2.2451704359e+01 -4.1036687839e+02 4.1875984721e+02 0.0000000000e+00 0.0000e+00 -1.0000e+00
      -14  1    4    4    0    0 +3.6395256185e+01 -3.2244069369e+01 -1.0007426199e+02 1.1126164027e+02 0.0000000000e+00 0.0000e+00 1.0000e+00
        3  1    1    2  502    0 -6.5452418374e+01 -2.5838510948e+01 +7.5793532127e+01 1.0342295312e+02 0.0000000000e+00 0.0000e+00 1.0000e+00
<mgrwt>
<rscale>  3 0.17714150E+03</rscale>
<asrwt>0</asrwt>
<pdfrwt beam="2">  1       21 0.28763621E+00 0.17725118E+03</pdfrwt>
<pdfrwt beam="1">  1        3 0.16755916E-01 0.17725118E+03</pdfrwt>
<totfact> 0.61526517E+01</totfact>
</mgrwt>
</event>
<event>
13      2 +1.4674046e+01 1.82750300e+02 7.54677100e-03 1.16681500e-01
       21 -1    0    0  503  502 +0.0000000000e+00 +0.0000000000e+00 +2.1018345370e+02 2.1018345370e+02 0.0000000000e+00 0.0000e+00 1.0000e+00
       21 -1    0    0  501  503 -0.0000000000e+00 -0.0000000000e+00 -1.0338501107e+03 1.0338501107e+03 0.0000000000e+00 0.0000e+00 -1.0000e+00
        6  2    1    2  501    0 -3.5519803828e+01 +3.2564317002e+01 -3.8101232342e+02 4.2256881435e+02 1.7627229236e+02 0.0000e+00 0.0000e+00
       24  2    3    3    0    0 -4.2121941852e+01 +7.0392988358e+01 -3.6144362565e+02 3.7921422364e+02 8.0202880816e+01 0.0000e+00 0.0000e+00
       -6  2    1    2    0  504 +4.8993851776e+01 -1.2224719004e+01 -6.1886940319e+02 6.4356871304e+02 1.6920847771e+02 0.0000e+00 0.0000e+00
      -24  2    5    5    0    0 +9.7886532599e+01 +4.3875729582e+00 -4.7957771260e+02 4.9493921546e+02 7.3273600411e+01 0.0000e+00 0.0000e+00
        5  1    3    3  501    0 +6.6021380240e+00 -3.7828671356e+01 -1.9568697769e+01 4.3354590708e+01 4.7000000000e+00 0.0000e+00 -1.0000e+00
      -13  1    4    4    0    0 -4.7577687391e-01 +6.9043649036e+01 -1.7407096793e+02 1.8726439520e+02 0.0000000000e+00 0.0000e+00 1.0000e+00
       14  1    4    4    0    0 -4.1646164978e+01 +1.3493393223e+00 -1.8737265773e+02 1.9194982844e+02 0.0000000000e+00 0.0000e+00 -1.0000e+00
       -5  1    5    5    0  504 -4.8892680824e+01 -1.6612291962e+01 -1.3929169059e+02 1.4862949758e+02 4.7000000000e+00 0.0000e+00 1.0000e+00
       13  1    6    6    0    0 +5.3388653397e+01 -2.7050786322e+01 -3.3764576293e+02 3.4290925123e+02 0.0000000000e+00 0.0000e+00 -1.0000e+00
      -14  1    6    6    0    0 +4.4497879202e+01 +3.1438359281e+01 -1.4193194967e+02 1.5202996423e+02 0.0000000000e+00 0.0000e+00 1.0000e+00
       21  1    1    2  504  502 -1.3474047948e+01 -2.0339597998e+01 +1.7621506963e+02 1.7789603700e+02 0.0000000000e+00 0.0000e+00 1.0000e+00
<mgrwt>
<rscale>  3 0.18102516E+03</rscale>
<asrwt>0</asrwt>
<pdfrwt beam="1">  1       21 0.32335916E-01 0.18275032E+03</pdfrwt>
<pdfrwt beam="2">  1       21 0.15905386E+00 0.18275032E+03</pdfrwt>
<totfact> 0.23759630E+03</totfact>
</mgrwt>
</event>
<event>
12      1 +1.4674046e+01 2.69621100e+02 7.54677100e-03 1.10183500e-01
       21 -1    0    0  501  502 +0.0000000000e+00 +0.0000000000e+00 +1.1498192069e+02 1.1498192069e+02 0.0000000000e+00 0.0000e+00 1.0000e+00
       21 -1    0    0  502  503 -0.0000000000e+00 -0.0000000000e+00 -6.5576125804e+02 6.5576125804e+02 0.0000000000e+00 0.0000e+00 1.0000e+00
       -6  2    1    2    0  503 +1.8272200006e+02 -9.5871070087e+01 -1.9044826170e+02 3.3010011910e+02 1.7354237771e+02 0.0000e+00 0.0000e+00
      -24  2    3    3    0    0 +9.2146026263e+01 +1.4077790611e+01 -6.0447706183e+01 1.3718823913e+02 8.0483622119e+01 0.0000e+00 0.0000e+00
        6  2    1    2  501    0 -1.8272200006e+02 +9.5871070087e+01 -3.5033107565e+02 4.4064305962e+02 1.6987010344e+02 0.0000e+00 0.0000e+00
       24  2    5    5    0    0 -1.9104605444e+02 +4.2118170732e+01 -2.9114168095e+02 3.6011891097e+02 8.1545180322e+01 0.0000e+00 0.0000e+00
        5  1    5    5  501    0 +8.3240543779e+00 +5.3752899355e+01 -5.9189394706e+01 8.0524148652e+01 4.7000000000e+00 0.0000e+00 -1.0000e+00
      -13  1    6    6    0    0 -8.0545936229e+01 -8.0006428930e+00 -1.7187920448e+02 1.8998452322e+02 0.0000000000e+00 0.0000e+00 1.0000e+00
       14  1    6    6    0    0 -1.1050011821e+02 +5.0118813625e+01 -1.1926247646e+02 1.7013438775e+02 0.0000000000e+00 0.0000e+00 -1.0000e+00
       -5  1    3    3    0  503 +9.0575973799e+01 -1.0994886070e+02 -1.3000055552e+02 1.9291187997e+02 4.7000000000e+00 0.0000e+00 1.0000e+00
       13  1    4    4    0    0 +9.8435384872e+01 +2.4888912540e+01 -6.8348045099e+01 1.2239460050e+02 0.0000000000e+00 0.0000e+00 -1.0000e+00
      -14  1    4    4    0    0 -6.2893586090e+00 -1.0811121930e+01 +7.9003389160e+00 1.4793638636e+01 0.0000000000e+00 0.0000e+00 1.0000e+00
<mgrwt>
<rscale>  2 0.26903197E+03</rscale>
<asrwt>0</asrwt>
<pdfrwt beam="1">  1       21 0.17689526E-01 0.26962112E+03</pdfrwt>
<pdfrwt beam="2">  1       21 0.10088635E+00 0.26962112E+03</pdfrwt>
<totfact> 0.22374915E+04</totfact>
</mgrwt>
</event>
<event>
12      2 +1.4674046e+01 3.14547900e+02 7.54677100e-03 1.09344100e-01
       21 -1    0    0  504  502 +0.0000000000e+00 +0.0000000000e+00 +5.6143086745e+02 5.6143086745e+02 0.0000000000e+00 0.0000e+00 -1.0000e+00
       21 -1    0    0  501  503 -0.0000000000e+00 -0.0000000000e+00 -4.0203579968e+02 4.0203579968e+02 0.0000000000e+00 0.0000e+00 -1.0000e+00
       24  2    1    2    0    0 +1.0869235257e+02 -3.9683779016e+01 +7.7632640084e+01 1.6096643674e+02 8.0588691060e+01 0.0000e+00 0.0000e+00
       -6  2    1    2    0  502 +1.7681798039e+01 +1.2159596202e+02 +3.6993704654e+02 4.2664515085e+02 1.7341984424e+02 0.0000e+00 0.0000e+00
      -24  2    4    4    0    0 -1.4066207591e+01 +1.3901540192e+02 +2.2010500519e+02 2.7242743668e+02 7.9040209882e+01 0.0000e+00 0.0000e+00
        5  1    1    2  501    0 -1.2241766439e+02 -4.9619978394e+01 -5.9625108755e+01 1.4500162207e+02 4.7000000000e+00 0.0000e+00 -1.0000e+00
      -13  1    3    3    0    0 -4.6841514598e+00 -2.4606595278e+01 +5.1915229982e+00 2.5580807593e+01 0.0000000000e+00 0.0000e+00 1.0000e+00
       14  1    3    3    0    0 +1.1337650403e+02 -1.5077183738e+01 +7.2441117086e+01 1.3538562915e+02 0.0000000000e+00 0.0000e+00 -1.0000e+00
       -5  1    4    4    0  502 +3.1748005630e+01 -1.7419439906e+01 +1.4983204134e+02 1.5421771416e+02 4.7000000000e+00 0.0000e+00 1.0000e+00
       13  1    5    5    0    0 +2.7052111018e+01 +4.5463222143e+01 +1.1086828907e+02 1.2284339136e+02 0.0000000000e+00 0.0000e+00 -1.0000e+00
      -14  1    5    5    0    0 -4.1118318609e+01 +9.3552179782e+01 +1.0923671612e+02 1.4958404533e+02 0.0000000000e+00 0.0000e+00 1.0000e+00
       21  1    1    2  504  503 -3.9564862198e+00 -3.2292204609e+01 -2.2854951009e+02 2.3085345747e+02 0.0000000000e+00 0.0000e+00 -1.0000e+00
<mgrwt>
<rscale>  3 0.28415556E+03</rscale>
<asrwt>0</asrwt>
<pdfrwt beam="1">  1       21 0.86373979E-01 0.31454795E+03</pdfrwt>
<pdfrwt beam="2">  1       21 0.61851662E-01 0.31454795E+03</pdfrwt>
<totfact> 0.25789159E+03</totfact>
</mgrwt>
</event>
<event>
12      1 +1.4674046e+01 2.23679600e+02 7.54677100e-03 1.13150800e-01
       21 -1    0    0  501  502 +0.0000000000e+00 +0.0000000000e+00 +3.7468337058e+02 3.7468337058e+02 0.0000000000e+00 0.0000e+00 1.0000e+00
       21 -1    0    0  502  503 -0.0000000000e+00 -0.0000000000e+00 -2.0393938453e+02 2.0393938453e+02 0.0000000000e+00 0.0000e+00 1.0000e+00
       -6  2    1    2    0  503 +5.4845757790e+01 -1.3023409470e+02 -8.6170276858e+01 2.3797996135e+02 1.7099756964e+02 0.0000e+00 0.0000e+00
      -24  2    3    3    0    0 +8.6108103626e+01 -1.2059413825e+02 -2.7852401382e+01 1.7094767341e+02 8.0559289280e+01 0.0000e+00 0.0000e+00
        6  2    1    2  501    0 -5.4845757790e+01 +1.3023409470e+02 +2.5691426291e+02 3.4064279376e+02 1.7338857483e+02 0.0000e+00 0.0000e+00
       24  2    5    5    0    0 -4.8840475477e+01 +3.4648681006e+01 +2.0756645125e+02 2.3280063483e+02 8.6754716021e+01 0.0000e+00 0.0000e+00
        5  1    5    5  501    0 -6.0052823124e+00 +9.5585413692e+01 +4.9347811661e+01 1.0784215893e+02 4.7000000000e+00 0.0000e+00 -1.0000e+00
      -13  1    6    6    0    0 -3.6492240128e+00 -2.6020997979e+01 +3.0543266181e+01 4.0290200803e+01 0.0000000000e+00 0.0000e+00 1.0000e+00
       14  1    6    6    0    0 -4.5191251465e+01 +6.0669678985e+01 +1.7702318507e+02 1.9251043403e+02 0.0000000000e+00 0.0000e+00 -1.0000e+00
       -5  1    3    3    0  503 -3.1262345837e+01 -9.6399564465e+00 -5.8317875476e+01 6.7032287948e+01 4.7000000000e+00 0.0000e+00 1.0000e+00
       13  1    4    4    0    0 +3.6185772416e+01 -5.7567232157e+01 +2.7486697562e+01 7.3341085937e+01 0.0000000000e+00 0.0000e+00 -1.0000e+00
      -14  1    4    4    0    0 +4.9922331210e+01 -6.3026906094e+01 -5.5339098944e+01 9.7606587468e+01 0.0000000000e+00 0.0000e+00 1.0000e+00
<mgrwt>
<rscale>  2 0.22321612E+03</rscale>
<asrwt>0</asrwt>
<pdfrwt beam="1">  1       21 0.57643596E-01 0.22367962E+03</pdfrwt>
<pdfrwt beam="2">  1       21 0.31375290E-01 0.22367962E+03</pdfrwt>
<totfact> 0.27100954E+04</totfact>
</mgrwt>
</event>
<event>
13      3 +1.4674046e+01 4.72880000e+02 7.54677100e-03 1.03654500e-01
       21 -1    0    0  503  502 +0.0000000000e+00 +0.0000000000e+00 +1.6820294718e+03 1.6820294718e+03 0.0000000000e+00 0.0000e+00 -1.0000e+00
       21 -1    0    0  505  503 -0.0000000000e+00 -0.0000000000e+00 -2.9330399795e+02 2.9330399795e+02 0.0000000000e+00 0.0000e+00 1.0000e+00
        6  2    1    2  501    0 -7.3076300742e+01 +2.1675113699e+02 +2.4948354167e+02 3.8222948257e+02 1.7758417345e+02 0.0000e+00 0.0000e+00
       24  2    3    3    0    0 -1.0334392617e+01 +2.2202823213e+01 +9.1272460163e+01 1.2369818902e+02 7.9817385037e+01 0.0000e+00 0.0000e+00
      -24  2    1    2    0    0 -1.0736095464e+02 -2.7488509673e+02 +1.5080294942e+02 3.4096732913e+02 8.0181038864e+01 0.0000e+00 0.0000e+00
        5  1    3    3  501    0 -6.2741908125e+01 +1.9454831378e+02 +1.5821108151e+02 2.5853129355e+02 4.7000000000e+00 0.0000e+00 -1.0000e+00
      -13  1    4    4    0    0 -3.9896326628e+01 +3.2917834723e+01 +5.1407639427e+01 7.2924934781e+01 0.0000000000e+00 0.0000e+00 1.0000e+00
       14  1    4    4    0    0 +2.9561934011e+01 -1.0715011510e+01 +3.9864820736e+01 5.0773254244e+01 0.0000000000e+00 0.0000e+00 -1.0000e+00
       -5  1    1    2    0  504 +1.4641555801e+02 +1.1070210412e+01 -5.1890422575e+01 1.5580363006e+02 4.7000000000e+00 0.0000e+00 1.0000e+00
       13  1    5    5    0    0 -7.5398762360e+00 -7.1197729270e+01 +5.9789187822e+00 7.1845068423e+01 0.0000000000e+00 0.0000e+00 -1.0000e+00
      -14  1    5    5    0    0 -9.9821078401e+01 -2.0368736746e+02 +1.4482403064e+02 2.6912226070e+02 0.0000000000e+00 0.0000e+00 1.0000e+00
       21  1    1    2  504  502 +1.6007136555e+01 +1.4805012036e+01 +1.0559814374e+03 1.0562065200e+03 0.0000000000e+00 0.0000e+00 -1.0000e+00
       21  1    1    2  505  501 +1.8014560814e+01 +3.2258737286e+01 -1.5652032086e+01 4.0126507960e+01 0.0000000000e+00 0.0000e+00 1.0000e+00
<mgrwt>
<rscale>  4 0.42160520E+03</rscale>
<asrwt>0</asrwt>
<pdfrwt beam="1">  1       21 0.25877376E+00 0.47288000E+03</pdfrwt>
<pdfrwt beam="2">  1       21 0.45123693E-01 0.47288000E+03</pdfrwt>
<totfact> 0.21863385E+02</totfact>
</mgrwt>
</event>
<event>
12      1 +1.4674046e+01 2.10581500e+02 7.54677100e-03 1.14266700e-01
       21 -1    0    0  501  502 +0.0000000000e+00 +0.0000000000e+00 +2.5287958033e+02 2.5287958033e+02 0.0000000000e+00 0.0000e+00 1.0000e+00
       21 -1    0    0  502  503 -0.0000000000e+00 -0.0000000000e+00 -1.6958909155e+02 1.6958909155e+02 0.0000000000e+00 0.0000e+00 1.0000e+00
       -6  2    1    2    0  503 -3.8211448273e+01 -1.0275386169e+02 +2.9574507490e+01 2.1264808309e+02 1.7979456298e+02 0.0000e+00 0.0000e+00
      -24  2    3    3    0    0 +4.2144328315e+01 -3.0836995940e+01 +4.3951542719e+01 1.0375421020e+02 7.8141751325e+01 0.0000e+00 0.0000e+00
        6  2    1    2  501    0 +3.8211448273e+01 +1.0275386169e+02 +5.3715981289e+01 2.0982058879e+02 1.7064818183e+02 0.0000e+00 0.0000e+00
       24  2    5    5    0    0 -3.7224910186e+01 +2.0510629015e+01 +2.8302831169e+01 9.5267056771e+01 8.0426252011e+01 0.0000e+00 0.0000e+00
        5  1    5    5  501    0 +7.5436358460e+01 +8.2243232673e+01 +2.5413150120e+01 1.1455353202e+02 4.7000000000e+00 0.0000e+00 -1.0000e+00
      -13  1    6    6    0    0 -2.1761659572e+01 +4.3492887689e+01 -8.3287627486e+00 4.9341355837e+01 0.0000000000e+00 0.0000e+00 1.0000e+00
       14  1    6    6    0    0 -1.5463250614e+01 -2.2982258674e+01 +3.6631593918e+01 4.5925700934e+01 0.0000000000e+00 0.0000e+00 -1.0000e+00
       -5  1    3    3    0  503 -8.0355776588e+01 -7.1916865748e+01 -1.4377035229e+01 1.0889387289e+02 4.7000000000e+00 0.0000e+00 1.0000e+00
       13  1    4    4    0    0 +1.0580114861e+01 -8.4821384334e+00 +6.0268093536e+01 6.1774821742e+01 0.0000000000e+00 0.0000e+00 -1.0000e+00
      -14  1    4    4    0    0 +3.1564213454e+01 -2.2354857507e+01 -1.6316550817e+01 4.1979388462e+01 0.0000000000e+00 0.0000e+00 1.0000e+00
<mgrwt>
<rscale>  2 0.20861580E+03</rscale>
<asrwt>0</asrwt>
<pdfrwt beam="1">  1       21 0.38904551E-01 0.21058147E+03</pdfrwt>
<pdfrwt beam="2">  1       21 0.26090629E-01 0.21058147E+03</pdfrwt>
<totfact> 0.88262873E+04</totfact>
</mgrwt>
</event>
<event>
13      2 +1.4674046e+01 2.59146700e+02 7.54677100e-03 1.10857600e-01
        1 -1    0    0  501    0 -0.0000000000e+00 +0.0000000000e+00 +1.7215522740e+03 1.7215522740e+03 0.0000000000e+00 0.0000e+00 -1.0000e+00
       21 -1    0    0  502  503 +0.0000000000e+00 -0.0000000000e+00 -5.4863840245e+01 5.4863840245e+01 0.0000000000e+00 0.0000e+00 -1.0000e+00
        6  2    1    2  501    0 +4.5924477351e+01 +1.6184206219e+02 +6.5596714476e+02 6.9890474993e+02 1.7283820109e+02 0.0000e+00 0.0000e+00
       24  2    3    3    0    0 -2.5711407793e+01 +1.2435103443e+02 +4.9410701836e+02 5.1791285033e+02 8.9262078668e+01 0.0000e+00 0.0000e+00
       -6  2    1    2    0  503 +2.5022293106e+00 -2.0319548534e+02 +5.6512459392e+02 6.2738730788e+02 1.8153336062e+02 0.0000e+00 0.0000e+00
      -24  2    5    5    0    0 +2.4799150103e+01 -1.2619129557e+02 +5.0365360856e+02 5.2625585896e+02 8.2091599759e+01 0.0000e+00 0.0000e+00
        5  1    3    3  501    0 +7.1635885144e+01 +3.7491027761e+01 +1.6186012640e+02 1.8099189960e+02 4.7000000000e+00 0.0000e+00 -1.0000e+00
      -13  1    4    4    0    0 -4.7973841208e+00 +1.0450353025e+01 +1.1730655953e+00 1.1558583635e+01 0.0000000000e+00 0.0000e+00 1.0000e+00
       14  1    4    4    0    0 -2.0914023672e+01 +1.1390068140e+02 +4.9293395276e+02 5.0635426669e+02 0.0000000000e+00 0.0000e+00 -1.0000e+00
       -5  1    5    5    0  503 -2.2296920792e+01 -7.7004189773e+01 +6.1470985368e+01 1.0113144892e+02 4.7000000000e+00 0.0000e+00 1.0000e+00
       13  1    6    6    0    0 -7.0141993448e+00 -6.7208701174e+01 +1.2870736468e+02 1.4536778951e+02 0.0000000000e+00 0.0000e+00 -1.0000e+00
      -14  1    6    6    0    0 +3.1813349448e+01 -5.8982594395e+01 +3.7494624388e+02 3.8088806944e+02 0.0000000000e+00 0.0000e+00 1.0000e+00
        1  1    1    2  502    0 -4.8426706662e+01 +4.1353423153e+01 +4.4559669512e+02 4.5012405649e+02 0.0000000000e+00 0.0000e+00 -1.0000e+00
<mgrwt>
<rscale>  3 0.25762969E+03</rscale>
<asrwt>0</asrwt>
<pdfrwt beam="2">  1       21 0.84405921E-02 0.25914669E+03</pdfrwt>
<pdfrwt beam="1">  1        1 0.26485415E+00 0.25914669E+03</pdfrwt>
<totfact> 0.62201175E+03</totfact>
</mgrwt>
</event>
<event>
14      3 +1.4674046e+01 2.08500300e+02 7.54677100e-03 1.14280800e-01
       21 -1    0    0  505  502 +0.0000000000e+00 +0.0000000000e+00 +2.1997346065e+02 2.1997346065e+02 0.0000000000e+00 0.0000e+00 -1.0000e+00
       21 -1    0    0  504  503 -0.0000000000e+00 -0.0000000000e+00 -7.0474011815e+02 7.0474011815e+02 0.0000000000e+00 0.0000e+00 1.0000e+00
       -6  2    1    2    0  502 +5.5376368623e+01 +6.8833441820e+01 -1.5520291670e+02 2.4883020801e+02 1.7327418200e+02 0.0000e+00 0.0000e+00
      -24  2    3    3    0    0 -2.3020968997e+01 +5.2275361419e+01 -1.3425150421e+02 1.6587621921e+02 7.8922590494e+01 0.0000e+00 0.0000e+00
        6  2    1    2  504    0 -1.1568714001e+02 -6.4672743786e+01 -4.7269523419e+02 5.2050858214e+02 1.7298069691e+02 0.0000e+00 0.0000e+00
       24  2    5    5    0    0 -1.2786921688e+02 -1.4897931857e+01 -3.5050409968e+02 3.8223712002e+02 8.1728862887e+01 0.0000e+00 0.0000e+00
        5  1    5    5  501    0 -1.0155349508e+01 -3.0878937260e+01 -8.3770405264e+01 8.9978945805e+01 4.7000000000e+00 0.0000e+00 -1.0000e+00
      -13  1    6    6    0    0 -7.6857441790e+01 -4.7587234151e+01 -2.3542032117e+02 2.5217918002e+02 0.0000000000e+00 0.0000e+00 1.0000e+00
       14  1    6    6    0    0 -5.1011775086e+01 +3.2689302293e+01 -1.1508377851e+02 1.3005794000e+02 0.0000000000e+00 0.0000e+00 -1.0000e+00
       -5  1    3    3    0  502 +7.8397337620e+01 +1.6558080401e+01 -2.0951412490e+01 8.2953988800e+01 4.7000000000e+00 0.0000e+00 1.0000e+00
       13  1    4    4    0    0 +1.3252511760e+01 +1.4562743921e+01 +2.1262806214e+00 1.9804637026e+01 0.0000000000e+00 0.0000e+00 -1.0000e+00
      -14  1    4    4    0    0 -3.6273480757e+01 +3.7712617498e+01 -1.3637778483e+02 1.4607158218e+02 0.0000000000e+00 0.0000e+00 1.0000e+00
       21  1    5    5  504  501 +2.2337426373e+01 -1.8895874669e+01 -3.8420729241e+01 4.8292516313e+01 0.0000000000e+00 0.0000e+00 -1.0000e+00
       21  1    1    2  505  503 +6.0310771388e+01 -4.1606980338e+00 +1.4313149338e+02 1.5537478866e+02 0.0000000000e+00 0.0000e+00 -1.0000e+00
<mgrwt>
<rscale>  4 0.20843932E+03</rscale>
<asrwt>0</asrwt>
<pdfrwt beam="1">  1       21 0.33842071E-01 0.20850031E+03</pdfrwt>
<pdfrwt beam="2">  1       21 0.10842156E+00 0.20850031E+03</pdfrwt>
<totfact> 0.56196819E+03</totfact>
</mgrwt>
</event>
<event>
13      2 +1.4674046e+01 1.87365400e+02 7.54677100e-03 1.16153900e-01
       21 -1    0    0  501  502 +0.0000000000e+00 +0.0000000000e+00 +9.8732529283e+01 9.8732529283e+01 0.0000000000e+00 0.0000e+00 1.0000e+00
       21 -1    0    0  504  503 -0.0000000000e+00 -0.0000000000e+00 -8.0245679983e+02 8.0245679983e+02 0.0000000000e+00 0.0000e+00 1.0000e+00
       -6  2    1    2    0  503 +4.9922796598e+01 +1.5075528469e+01 -1.7468452986e+02 2.5221732126e+02 1.7429668670e+02 0.0000e+00 0.0000e+00
      -24  2    3    3    0    0 +3.6904425206e+01 +6.3834963727e+01 -5.6026217950e+01 1.2318691591e+02 8.1235706188e+01 0.0000e+00 0.0000e+00
        6  2    1    2  501    0 -7.5468111404e+01 -2.7968705901e+01 -9.0779444497e+01 2.0977856033e+02 1.7113869370e+02 0.0000e+00 0.0000e+00
       24  2    5    5    0    0 -1.5097858720e+00 -5.1973711914e+01 -9.0452811265e+01 1.3187945302e+02 8.0665561925e+01 0.0000e+00 0.0000e+00
        5  1    5    5  501    0 -7.3958325532e+01 +2.4005006013e+01 -3.2663323260e-01 7.7899107302e+01 4.7000000000e+00 0.0000e+00 -1.0000e+00
      -13  1    6    6    0    0 -3.1383485335e+01 -2.5545785332e+01 -8.1511937273e+01 9.1003880236e+01 0.0000000000e+00 0.0000e+00 1.0000e+00
       14  1    6    6    0    0 +2.9873699463e+01 -2.6427926582e+01 -8.9408739919e+00 4.0875572788e+01 0.0000000000e+00 0.0000e+00 -1.0000e+00
       -5  1    3    3    0  503 +1.3018371392e+01 -4.8759435257e+01 -1.1865831191e+02 1.2903040535e+02 4.7000000000e+00 0.0000e+00 1.0000e+00
       13  1    4    4    0    0 -2.1233810342e+01 +1.1042266016e+01 -3.4084784159e+01 4.1648275493e+01 0.0000000000e+00 0.0000e+00 -1.0000e+00
      -14  1    4    4    0    0 +5.8138235548e+01 +5.2792697710e+01 -2.1941433792e+01 8.1538640417e+01 0.0000000000e+00 0.0000e+00 1.0000e+00
       21  1    1    2  504  502 +2.5545314806e+01 +1.2893177432e+01 -4.3826029619e+02 4.3919344752e+02 0.0000000000e+00 0.0000e+00 1.0000e+00
<mgrwt>
<rscale>  3 0.18662751E+03</rscale>
<asrwt>0</asrwt>
<pdfrwt beam="1">  1       21 0.15189620E-01 0.18736537E+03</pdfrwt>
<pdfrwt beam="2">  1       21 0.12345489E+00 0.18736537E+03</pdfrwt>
<totfact> 0.18931260E+04</totfact>
</mgrwt>
</event>
<event>
12      1 +1.4674046e+01 2.05304500e+02 7.54677100e-03 1.14571600e-01
       21 -1    0    0  501  502 +0.0000000000e+00 +0.0000000000e+00 +1.3243763753e+02 1.3243763753e+02 0.0000000000e+00 0.0000e+00 1.0000e+00
       21 -1    0    0  502  503 -0.0000000000e+00 -0.0000000000e+00 -3.7401201358e+02 3.7401201358e+02 0.0000000000e+00 0.0000e+00 -1.0000e+00
       -6  2    1    2    0  503 -8.7422112409e+01 -6.5652844022e+01 -2.2055761918e+02 3.0007221507e+02 1.7159472373e+02 0.0000e+00 0.0000e+00
      -24  2    3    3    0    0 +2.1077976043e+01 -2.2935564820e+01 -1.0034795277e+02 1.3253270022e+02 8.0776752813e+01 0.0000e+00 0.0000e+00
        6  2    1    2  501    0 +8.7422112409e+01 +6.5652844022e+01 -2.1016756876e+01 2.0637743604e+02 1.7377289884e+02 0.0000e+00 0.0000e+00
       24  2    5    5    0    0 +6.3295539044e+01 +9.7354497611e+01 +2.5894271166e+01 1.4465368912e+02 8.2279724285e+01 0.0000e+00 0.0000e+00
        5  1    5    5  501    0 +2.4126573365e+01 -3.1701653589e+01 -4.6911028042e+01 6.1723746926e+01 4.7000000000e+00 0.0000e+00 -1.0000e+00
      -13  1    6    6    0    0 +5.0595653681e+01 +1.0652178320e+01 -4.5104536768e+00 5.1901187527e+01 0.0000000000e+00 0.0000e+00 1.0000e+00
       14  1    6    6    0    0 +1.2699885363e+01 +8.6702319291e+01 +3.0404724843e+01 9.2752501591e+01 0.0000000000e+00 0.0000e+00 -1.0000e+00
       -5  1    3    3    0  503 -1.0850008845e+02 -4.2717279202e+01 -1.2020966641e+02 1.6753951484e+02 4.7000000000e+00 0.0000e+00 1.0000e+00
       13  1    4    4    0    0 +1.1850561091e+01 -3.9949245603e+01 -1.0470618558e+02 1.1269322660e+02 0.0000000000e+00 0.0000e+00 -1.0000e+00
      -14  1    4    4    0    0 +9.2274149522e+00 +1.7013680783e+01 +4.3582328078e+00 1.9839473624e+01 0.0000000000e+00 0.0000e+00 1.0000e+00
<mgrwt>
<rscale>  2 0.20484287E+03</rscale>
<asrwt>0</asrwt>
<pdfrwt beam="1">  1       21 0.20375021E-01 0.20530451E+03</pdfrwt>
<pdfrwt beam="2">  1       21 0.57540309E-01 0.20530451E+03</pdfrwt>
<totfact> 0.62816394E+04</totfact>
</mgrwt>
</event>
<event>
13      3 +1.4674046e+01 2.13533700e+02 7.54677100e-03 1.14364400e-01
       21 -1    0    0  502  503 +0.0000000000e+00 +0.0000000000e+00 +6.7335652640e+02 6.7335652640e+02 0.0000000000e+00 0.0000e+00 1.0000e+00
       -1 -1    0    0    0  501 -0.0000000000e+00 -0.0000000000e+00 -1.7054975646e+02 1.7054975646e+02 0.0000000000e+00 0.0000e+00 1.0000e+00
      -24  2    1    2    0    0 +3.8618505534e+01 -3.0422903088e+00 +1.0591726649e+02 1.4268042433e+02 8.7399036872e+01 0.0000e+00 0.0000e+00
        6  2    1    2  502    0 +9.4971925921e+01 -5.1494030822e+01 +2.4005311653e+02 3.1385209933e+02 1.7089862368e+02 0.0000e+00 0.0000e+00
       24  2    4    4    0    0 -1.0445824821e+01 -6.0854400528e+01 +9.8892244443e+01 1.3736130495e+02 7.2636621387e+01 0.0000e+00 0.0000e+00
        5  1    4    4  502    0 +1.0541775074e+02 +9.3603697067e+00 +1.4116087209e+02 1.7649079438e+02 4.7000000000e+00 0.0000e+00 -1.0000e+00
      -13  1    5    5    0    0 -1.2356171757e+01 -2.2840850354e+01 -5.2390209016e+00 2.6492013238e+01 0.0000000000e+00 0.0000e+00 1.0000e+00
       14  1    5    5    0    0 +1.9103469365e+00 -3.8013550175e+01 +1.0413126535e+02 1.1086929171e+02 0.0000000000e+00 0.0000e+00 -1.0000e+00
       -5  1    1    2    0  504 -8.9155470508e+01 +4.3655926949e+01 +2.5130950721e+02 2.7024636222e+02 4.7000000000e+00 0.0000e+00 1.0000e+00
       13  1    3    3    0    0 +8.5936283049e+00 +2.6673289455e+01 -6.6554847097e-01 2.8031371222e+01 0.0000000000e+00 0.0000e+00 -1.0000e+00
      -14  1    3    3    0    0 +3.0024877229e+01 -2.9715579764e+01 +1.0658281496e+02 1.1464905311e+02 0.0000000000e+00 0.0000e+00 1.0000e+00
       21  1    1    2  504  501 -7.9778235827e+00 +2.7228433125e+01 -3.0116381335e+01 4.1376680199e+01 0.0000000000e+00 0.0000e+00 1.0000e+00
       -1  1    1    2    0  503 -3.6457137364e+01 -1.6348038944e+01 -6.4356738965e+01 7.5750716777e+01 0.0000000000e+00 0.0000e+00 1.0000e+00
<mgrwt>
<rscale>  4 0.20739655E+03</rscale>
<asrwt>0</asrwt>
<pdfrwt beam="1">  1       21 0.10359331E+00 0.21353369E+03</pdfrwt>
<pdfrwt beam="2">  1       -1 0.26238425E-01 0.21353369E+03</pdfrwt>
<totfact> 0.87477528E+02</totfact>
</mgrwt>
</event>
<event>
12      1 +1.4674046e+01 2.03744100e+02 7.54677100e-03 1.14666100e-01
       21 -1    0    0  503  502 +0.0000000000e+00 +0.0000000000e+00 +2.7539953600e+02 2.7539953600e+02 0.0000000000e+00 0.0000e+00 -1.0000e+00
       21 -1    0    0  501  503 -0.0000000000e+00 -0.0000000000e+00 -1.9010567968e+02 1.9010567968e+02 0.0000000000e+00 0.0000e+00 1.0000e+00
        6  2    1    2  501    0 -5.3269324770e+01 +9.1660717752e+01 -6.3467536478e+01 2.1340049955e+02 1.7398947348e+02 0.0000e+00 0.0000e+00
       24  2    3    3    0    0 -5.1901724490e+01 +7.6839945098e+01 +2.3289262232e+01 1.2525086679e+02 8.0914916606e+01 0.0000e+00 0.0000e+00
       -6  2    1    2    0  502 +5.3269324770e+01 -9.1660717752e+01 +1.4876139280e+02 2.5210471613e+02 1.7374558344e+02 0.0000e+00 0.0000e+00
      -24  2    5    5    0    0 +9.9514899574e+01 -5.4136392603e+01 +7.8711210315e+01 1.6004035694e+02 8.1138751401e+01 0.0000e+00 0.0000e+00
        5  1    3    3  501    0 -1.3676002802e+00 +1.4820772655e+01 -8.6756798710e+01 8.8149632756e+01 4.7000000000e+00 0.0000e+00 -1.0000e+00
      -13  1    4    4    0    0 -3.4271698127e+01 +6.9918481052e+01 -1.7916359666e+01 7.9900808687e+01 0.0000000000e+00 0.0000e+00 1.0000e+00
       14  1    4    4    0    0 -1.7630026363e+01 +6.9214640453e+00 +4.1205621899e+01 4.5350058105e+01 0.0000000000e+00 0.0000e+00 -1.0000e+00
       -5  1    5    5    0  502 -4.6245574804e+01 -3.7524325149e+01 +7.0050182482e+01 9.2064359188e+01 4.7000000000e+00 0.0000e+00 1.0000e+00
       13  1    6    6    0    0 +5.0666104300e+01 -5.9798418540e+01 +1.5401439534e+01 7.9875586536e+01 0.0000000000e+00 0.0000e+00 -1.0000e+00
      -14  1    6    6    0    0 +4.8848795275e+01 +5.6620259369e+00 +6.3309770782e+01 8.0164770404e+01 0.0000000000e+00 0.0000e+00 1.0000e+00
<mgrwt>
<rscale>  2 0.20369199E+03</rscale>
<asrwt>0</asrwt>
<pdfrwt beam="1">  1       21 0.42369160E-01 0.20374407E+03</pdfrwt>
<pdfrwt beam="2">  1       21 0.29247027E-01 0.20374407E+03</pdfrwt>
<totfact> 0.59703727E+04</totfact>
</mgrwt>
</event>
<event>
14      3 +1.4674046e+01 2.33527000e+02 7.54677100e-03 1.12423500e-01
       21 -1    0    0  503  502 +0.0000000000e+00 +0.0000000000e+00 +5.2612545276e+02 5.2612545276e+02 0.0000000000e+00 0.0000e+00 -1.0000e+00
       21 -1    0    0  501  503 -0.0000000000e+00 -0.0000000000e+00 -3.9460233114e+02 3.9460233114e+02 0.0000000000e+00 0.0000e+00 1.0000e+00
        6  2    1    2  501    0 -1.5249731776e+02 -6.1602421937e+01 +7.6109170329e+01 2.5120145918e+02 1.7395193868e+02 0.0000e+00 0.0000e+00
       24  2    3    3    0    0 -1.6843225631e+02 -2.9162052573e+01 +2.7703016326e+01 1.9060817922e+02 7.9650301911e+01 0.0000e+00 0.0000e+00
       -6  2    1    2    0  504 +1.4091802739e+02 +6.0645334073e+01 -2.5029433288e+02 3.4102332795e+02 1.7353359948e+02 0.0000e+00 0.0000e+00
      -24  2    5    5    0    0 +1.4562364115e+02 -2.0304462108e+00 -1.7236441915e+02 2.4079579836e+02 8.4040204346e+01 0.0000e+00 0.0000e+00
        5  1    3    3  501    0 +1.5934938549e+01 -3.2440369364e+01 +4.8406154004e+01 6.0593279961e+01 4.7000000000e+00 0.0000e+00 -1.0000e+00
      -13  1    4    4    0    0 -5.5134443634e+01 +2.7755873564e+01 +1.1442930013e+01 6.2778467960e+01 0.0000000000e+00 0.0000e+00 1.0000e+00
       14  1    4    4    0    0 -1.1329781268e+02 -5.6917926137e+01 +1.6260086313e+01 1.2782971126e+02 0.0000000000e+00 0.0000e+00 -1.0000e+00
       -5  1    5    5    0  504 -4.7056137563e+00 +6.2675780283e+01 -7.7929913721e+01 1.0022752959e+02 4.7000000000e+00 0.0000e+00 1.0000e+00
       13  1    6    6    0    0 +2.9756415723e+01 -2.6620717318e+01 -1.2510112513e+01 4.1840288984e+01 0.0000000000e+00 0.0000e+00 -1.0000e+00
      -14  1    6    6    0    0 +1.1586722542e+02 +2.4590271107e+01 -1.5985430664e+02 1.9895550938e+02 0.0000000000e+00 0.0000e+00 1.0000e+00
       21  1    1    2  504  505 +3.6497789882e+01 -5.8973931169e-01 +1.9838745392e+01 4.1545303915e+01 0.0000000000e+00 0.0000e+00 -1.0000e+00
       21  1    1    2  505  502 -2.4918499511e+01 +1.5468271763e+00 +2.8586953877e+02 2.8695769286e+02 0.0000000000e+00 0.0000e+00 -1.0000e+00
<mgrwt>
<rscale>  4 0.23344910E+03</rscale>
<asrwt>0</asrwt>
<pdfrwt beam="1">  1       21 0.80942378E-01 0.23352700E+03</pdfrwt>
<pdfrwt beam="2">  1       21 0.60708051E-01 0.23352700E+03</pdfrwt>
<totfact> 0.32775456E+03</totfact>
</mgrwt>
</event>
<event>
13      2 +1.4674046e+01 2.37584000e+02 7.54677100e-03 1.12146100e-01
       21 -1    0    0  502  503 +0.0000000000e+00 +0.0000000000e+00 +4.6785501257e+02 4.6785501257e+02 0.0000000000e+00 0.0000e+00 -1.0000e+00
        2 -1    0    0  501    0 -0.0000000000e+00 -0.0000000000e+00 -3.4229118306e+02 3.4229118306e+02 0.0000000000e+00 0.0000e+00 -1.0000e+00
        6  2    1    2  501    0 -1.2700636625e+02 -1.9134364415e+01 -8.4223128430e-01 2.1608525054e+02 1.7376819380e+02 0.0000e+00 0.0000e+00
       24  2    3    3    0    0 -9.9776618175e+01 -6.5324506982e+01 -3.9918615739e+01 1.4957177617e+02 8.0966385595e+01 0.0000e+00 0.0000e+00
       -6  2    1    2    0  503 +1.7388689530e+02 -3.9977510144e+01 +3.0887542825e+02 3.9660951365e+02 1.7337884088e+02 0.0000e+00 0.0000e+00
      -24  2    5    5    0    0 +7.4468058622e+01 +1.2223649877e+01 +1.2716556748e+02 1.8295177404e+02 1.0772817969e+02 0.0000e+00 0.0000e+00
        5  1    3    3  501    0 -2.7229748076e+01 +4.6190142568e+01 +3.9076384454e+01 6.6513474370e+01 4.7000000000e+00 0.0000e+00 -1.0000e+00
      -13  1    4    4    0    0 -8.5950977926e+01 -4.7605364289e+01 -6.3506451574e+01 1.1699107106e+02 0.0000000000e+00 0.0000e+00 1.0000e+00
       14  1    4    4    0    0 -1.3825640249e+01 -1.7719142694e+01 +2.3587835835e+01 3.2580705110e+01 0.0000000000e+00 0.0000e+00 -1.0000e+00
       -5  1    5    5    0  503 +9.9418836680e+01 -5.2201160021e+01 +1.8170986077e+02 2.1365773961e+02 4.7000000000e+00 0.0000e+00 1.0000e+00
       13  1    6    6    0    0 +5.3366067295e+01 -4.5132361038e+01 +5.9670018342e+01 9.1898739057e+01 0.0000000000e+00 0.0000e+00 -1.0000e+00
      -14  1    6    6    0    0 +2.1101991327e+01 +5.7356010914e+01 +6.7495549141e+01 9.1053034984e+01 0.0000000000e+00 0.0000e+00 1.0000e+00
        2  1    1    2  502    0 -4.6880529051e+01 +5.9111874559e+01 -1.8246936746e+02 1.9745143144e+02 0.0000000000e+00 0.0000e+00 -1.0000e+00
<mgrwt>
<rscale>  3 0.23751285E+03</rscale>
<asrwt>0</asrwt>
<pdfrwt beam="1">  1       21 0.71977694E-01 0.23758404E+03</pdfrwt>
<pdfrwt beam="2">  1        2 0.52660182E-01 0.23758404E+03</pdfrwt>
<totfact> 0.20143423E+03</totfact>
</mgrwt>
</event>
<event>
12      1 +1.4674046e+01 2.34170500e+02 7.54677100e-03 1.12501600e-01
       21 -1    0    0  503  502 +0.0000000000e+00 +0.0000000000e+00 +1.2008904978e+02 1.2008904978e+02 0.0000000000e+00 0.0000e+00 1.0000e+00
       21 -1    0    0  501  503 -0.0000000000e+00 -0.0000000000e+00 -5.0213617472e+02 5.0213617472e+02 0.0000000000e+00 0.0000e+00 -1.0000e+00
        6  2    1    2  501    0 +5.5684784849e+01 +1.4733482866e+02 -2.9557035710e+02 3.7259734825e+02 1.6327461812e+02 0.0000e+00 0.0000e+00
       24  2    3    3    0    0 +2.3911167480e+01 +1.6855713653e+02 -2.2700846276e+02 2.9396674054e+02 7.6813736877e+01 0.0000e+00 0.0000e+00
       -6  2    1    2    0  502 -5.5684784849e+01 -1.4733482866e+02 -8.6476767843e+01 2.4962787626e+02 1.7328444312e+02 0.0000e+00 0.0000e+00
      -24  2    5    5    0    0 -4.8304051877e+01 -4.4618582796e+00 -3.8774865552e+01 9.8748048691e+01 7.6775629692e+01 0.0000e+00 0.0000e+00
        5  1    3    3  501    0 +3.1773617369e+01 -2.1222307872e+01 -6.8561894348e+01 7.8630607709e+01 4.7000000000e+00 0.0000e+00 -1.0000e+00
      -13  1    4    4    0    0 -8.9523248566e+00 +4.8654454334e+01 -2.1858271068e+01 5.4084970749e+01 0.0000000000e+00 0.0000e+00 1.0000e+00
       14  1    4    4    0    0 +3.2863492336e+01 +1.1990268220e+02 -2.0515019169e+02 2.3988176979e+02 0.0000000000e+00 0.0000e+00 -1.0000e+00
       -5  1    5    5    0  502 -7.3807329722e+00 -1.4287297038e+02 -4.7701902291e+01 1.5087982757e+02 4.7000000000e+00 0.0000e+00 1.0000e+00
       13  1    6    6    0    0 +2.1159737614e+01 -1.0426919939e+00 -7.2811682321e+00 2.2401721213e+01 0.0000000000e+00 0.0000e+00 -1.0000e+00
      -14  1    6    6    0    0 -6.9463789491e+01 -3.4191662857e+00 -3.1493697319e+01 7.6346327478e+01 0.0000000000e+00 0.0000e+00 1.0000e+00
<mgrwt>
<rscale>  2 0.23232196E+03</rscale>
<asrwt>0</asrwt>
<pdfrwt beam="1">  1       21 0.18475238E-01 0.23417055E+03</pdfrwt>
<pdfrwt beam="2">  1       21 0.77251720E-01 0.23417055E+03</pdfrwt>
<totfact> 0.38996711E+04</totfact>
</mgrwt>
</event>
<event>
12      1 +1.4674046e+01 1.75170300e+02 7.54677100e-03 1.17270100e-01
       21 -1    0    0  503  502 +0.0000000000e+00 +0.0000000000e+00 +8.2958106996e+01 8.2958106996e+01 0.0000000000e+00 0.0000e+00 1.0000e+00
       21 -1    0    0  501  503 -0.0000000000e+00 -0.0000000000e+00 -8.4778152599e+02 8.4778152599e+02 0.0000000000e+00 0.0000e+00 1.0000e+00
        6  2    1    2  501    0 +1.9803445559e+01 -2.1408061594e+01 -7.3197847076e+02 7.5251666506e+02 1.7215797390e+02 0.0000e+00 0.0000e+00
       24  2    3    3    0    0 +4.1251659860e+01 -3.6080883222e+01 -7.1583402207e+02 7.2156426911e+02 7.2340291209e+01 0.0000e+00 0.0000e+00
       -6  2    1    2    0  502 -1.9803445559e+01 +2.1408061594e+01 -3.2844948231e+01 1.7822296792e+02 1.7272566142e+02 0.0000e+00 0.0000e+00
      -24  2    5    5    0    0 -3.3268747374e+01 -3.0914900639e+01 -6.8169051749e+01 1.1350134079e+02 7.8568404025e+01 0.0000e+00 0.0000e+00
        5  1    3    3  501    0 -2.1448214301e+01 +1.4672821628e+01 -1.6144448691e+01 3.0952395946e+01 4.7000000000e+00 0.0000e+00 -1.0000e+00
      -13  1    4    4    0    0 +3.9379944502e+00 +2.0151562408e+01 -1.0307804216e+02 1.0510316857e+02 0.0000000000e+00 0.0000e+00 1.0000e+00
       14  1    4    4    0    0 +3.7313665410e+01 -5.6232445630e+01 -6.1275597990e+02 6.1646110054e+02 0.0000000000e+00 0.0000e+00 -1.0000e+00
       -5  1    5    5    0  502 +1.3465301814e+01 +5.2322962233e+01 +3.5324103519e+01 6.4721627136e+01 4.7000000000e+00 0.0000e+00 1.0000e+00
       13  1    6    6    0    0 -4.0327499166e+01 -1.6278231507e+01 -6.8607897398e-02 4.3488995356e+01 0.0000000000e+00 0.0000e+00 -1.0000e+00
      -14  1    6    6    0    0 +7.0587517928e+00 -1.4636669132e+01 -6.8100443852e+01 7.0012345433e+01 0.0000000000e+00 0.0000e+00 1.0000e+00
<mgrwt>
<rscale>  2 0.17503020E+03</rscale>
<asrwt>0</asrwt>
<pdfrwt beam="1">  1       21 0.12762786E-01 0.17517030E+03</pdfrwt>
<pdfrwt beam="2">  1       21 0.13042793E+00 0.17517030E+03</pdfrwt>
<totfact> 0.22777720E+04</totfact>
</mgrwt>
</event>
<event>
13      2 +1.4674046e+01 2.59074300e+02 7.54677100e-03 1.10779100e-01
       21 -1    0    0  504  502 +0.0000000000e+00 +0.0000000000e+00 +3.0148268283e+02 3.0148268283e+02 0.0000000000e+00 0.0000e+00 -1.0000e+00
       21 -1    0    0  502  503 -0.0000000000e+00 -0.0000000000e+00 -3.8501357597e+02 3.8501357597e+02 0.0000000000e+00 0.0000e+00 1.0000e+00
       -6  2    1    2    0  503 -1.6245333795e+02 -1.1409592492e+02 -2.4410444281e+02 3.5912746708e+02 1.7313749310e+02 0.0000e+00 0.0000e+00
      -24  2    3    3    0    0 -8.7652065622e+01 -8.6053595786e+01 -2.3714792151e+02 2.7880259077e+02 8.0022759179e+01 0.0000e+00 0.0000e+00
        6  2    1    2  501    0 +1.3346918416e+02 +1.1201155778e+02 +1.0896728352e+02 2.6814352292e+02 1.7223956518e+02 0.0000e+00 0.0000e+00
       24  2    5    5    0    0 +3.7535884933e+01 +9.8030275715e+01 +1.7027414042e+01 1.3445095115e+02 8.2269361380e+01 0.0000e+00 0.0000e+00
        5  1    5    5  501    0 +9.5933299226e+01 +1.3981282066e+01 +9.1939869474e+01 1.3369257177e+02 4.7000000000e+00 0.0000e+00 -1.0000e+00
      -13  1    6    6    0    0 +1.8649273546e+01 +4.9350694301e+01 -3.2926648557e+01 6.2188830324e+01 0.0000000000e+00 0.0000e+00 1.0000e+00
       14  1    6    6    0    0 +1.8886611387e+01 +4.8679581414e+01 +4.9954062599e+01 7.2262120827e+01 0.0000000000e+00 0.0000e+00 -1.0000e+00
       -5  1    3    3    0  503 -7.4801272331e+01 -2.8042329137e+01 -6.9565212948e+00 8.0324876310e+01 4.7000000000e+00 0.0000e+00 1.0000e+00
       13  1    4    4    0    0 -8.1212095527e+01 -9.9271985607e+01 -1.8862084506e+02 2.2809681010e+02 0.0000000000e+00 0.0000e+00 -1.0000e+00
      -14  1    4    4    0    0 -6.4399700950e+00 +1.3218389822e+01 -4.8527076456e+01 5.0705780673e+01 0.0000000000e+00 0.0000e+00 1.0000e+00
       21  1    1    2  504  501 +2.8984153793e+01 +2.0843671421e+00 +5.1606266150e+01 5.9225268792e+01 0.0000000000e+00 0.0000e+00 -1.0000e+00
<mgrwt>
<rscale>  3 0.25892441E+03</rscale>
<asrwt>0</asrwt>
<pdfrwt beam="1">  1       21 0.46381951E-01 0.25907434E+03</pdfrwt>
<pdfrwt beam="2">  1       21 0.59232858E-01 0.25907434E+03</pdfrwt>
<totfact> 0.11400102E+04</totfact>
</mgrwt>
</event>
<event>
11      1 +1.4674046e+01 5.04932500e+02 7.54677100e-03 1.02731900e-01
       21 -1    0    0  503  502 +0.0000000000e+00 +0.0000000000e+00 +9.6440933825e+02 9.6440933825e+02 0.0000000000e+00 0.0000e+00 1.0000e+00
       21 -1    0    0  501  503 -0.0000000000e+00 -0.0000000000e+00 -1.7892933930e+02 1.7892933930e+02 0.0000000000e+00 0.0000e+00 -1.0000e+00
        6  2    1    2  501    0 -2.6886717957e+02 +3.1900016579e+01 +3.5794379481e+02 4.8171640903e+02 1.7498504845e+02 0.0000e+00 0.0000e+00
       24  2    3    3    0    0 -2.2189083252e+02 +7.2431177060e+01 +3.3414661151e+02 4.1509848288e+02 7.8555557008e+01 0.0000e+00 0.0000e+00
      -24  2    1    2    0    0 +2.3817889235e+02 +1.2235230956e+02 +9.7967861284e+01 2.9641967584e+02 8.1041038758e+01 0.0000e+00 0.0000e+00
        5  1    3    3  501    0 -4.6976347052e+01 -4.0531160481e+01 +2.3797183294e+01 6.6617926153e+01 4.7000000000e+00 0.0000e+00 -1.0000e+00
      -13  1    4    4    0    0 -2.8036487912e+01 -1.1511458586e+01 +7.4116543161e+01 8.0073842816e+01 0.0000000000e+00 0.0000e+00 1.0000e+00
       14  1    4    4    0    0 -1.9385434460e+02 +8.3942635646e+01 +2.6003006835e+02 3.3502464006e+02 0.0000000000e+00 0.0000e+00 -1.0000e+00
       -5  1    1    2    0  502 +3.0688287220e+01 -1.5425232614e+02 +3.2956834285e+02 3.6520259268e+02 4.7000000000e+00 0.0000e+00 1.0000e+00
       13  1    5    5    0    0 +2.1754877348e+02 +9.7000672145e+01 +1.0896391543e+02 2.6193459890e+02 0.0000000000e+00 0.0000e+00 -1.0000e+00
      -14  1    5    5    0    0 +2.0630118873e+01 +2.5351637415e+01 -1.0996054143e+01 3.4485076933e+01 0.0000000000e+00 0.0000e+00 1.0000e+00
<mgrwt>
<rscale>  2 0.45135266E+03</rscale>
<asrwt>0</asrwt>
<pdfrwt beam="1">  1       21 0.14837066E+00 0.50493249E+03</pdfrwt>
<pdfrwt beam="2">  1       21 0.27527591E-01 0.50493249E+03</pdfrwt>
<totfact> 0.32859113E+03</totfact>
</mgrwt>
</event>
<event>
12      1 +1.4674046e+01 1.79868900e+02 7.54677100e-03 1.16917100e-01
       21 -1    0    0  503  502 +0.0000000000e+00 +0.0000000000e+00 +1.2451439985e+02 1.2451439985e+02 0.0000000000e+00 0.0000e+00 1.0000e+00
       21 -1    0    0  501  503 -0.0000000000e+00 -0.0000000000e+00 -3.5306344945e+02 3.5306344945e+02 0.0000000000e+00 0.0000e+00 1.0000e+00
        6  2    1    2  501    0 +3.7135833718e+01 +1.3101714044e+00 -2.4281235832e+02 3.0217651234e+02 1.7598868304e+02 0.0000e+00 0.0000e+00
       24  2    3    3    0    0 +4.9390752664e+01 +2.8264114527e+01 -2.5264268645e+02 2.7062618049e+02 7.8561415026e+01 0.0000e+00 0.0000e+00
       -6  2    1    2    0  502 -3.7135833718e+01 -1.3101714044e+00 +1.4263308721e+01 1.7540133696e+02 1.7082564309e+02 0.0000e+00 0.0000e+00
      -24  2    5    5    0    0 +4.3289018528e+01 -1.1886703259e+01 -2.9541145398e+00 9.2343829484e+01 8.0643804546e+01 0.0000e+00 0.0000e+00
        5  1    3    3  501    0 -1.2254918946e+01 -2.6953943122e+01 +9.8303281310e+00 3.1550331843e+01 4.7000000000e+00 0.0000e+00 -1.0000e+00
      -13  1    4    4    0    0 +2.1181880161e+00 -2.5093909303e+01 -5.4113856883e+01 5.9686686215e+01 0.0000000000e+00 0.0000e+00 1.0000e+00
       14  1    4    4    0    0 +4.7272564648e+01 +5.3358023830e+01 -1.9852882957e+02 2.1093949428e+02 0.0000000000e+00 0.0000e+00 -1.0000e+00
       -5  1    5    5    0  502 -8.0424852246e+01 +1.0576531854e+01 +1.7217423260e+01 8.3057507479e+01 4.7000000000e+00 0.0000e+00 1.0000e+00
       13  1    6    6    0    0 -1.2923363387e+01 -1.0900453174e+01 -2.6465408576e+01 3.1404634240e+01 0.0000000000e+00 0.0000e+00 -1.0000e+00
      -14  1    6    6    0    0 +5.6212381915e+01 -9.8625008427e-01 +2.3511294036e+01 6.0939195245e+01 0.0000000000e+00 0.0000e+00 1.0000e+00
<mgrwt>
<rscale>  2 0.17859324E+03</rscale>
<asrwt>0</asrwt>
<pdfrwt beam="1">  1       21 0.19156062E-01 0.17986885E+03</pdfrwt>
<pdfrwt beam="2">  1       21 0.54317453E-01 0.17986885E+03</pdfrwt>
<totfact> 0.80532592E+04</totfact>
</mgrwt>
</event>
<event>
13      2 +1.4674046e+01 3.04955200e+02 7.54677100e-03 1.08283400e-01
       21 -1    0    0  502  503 +0.0000000000e+00 +0.0000000000e+00 +2.2880738872e+02 2.2880738872e+02 0.0000000000e+00 0.0000e+00 1.0000e+00
        1 -1    0    0  501    0 -0.0000000000e+00 -0.0000000000e+00 -1.4404336487e+03 1.4404336487e+03 0.0000000000e+00 0.0000e+00 1.0000e+00
        6  2    1    2  501    0 -9.6739040162e+00 +2.5154374037e+02 +2.6226185305e+01 3.0654181739e+02 1.7295154026e+02 0.0000e+00 0.0000e+00
       24  2    3    3    0    0 -3.8652693198e-01 +1.9317274764e+02 +8.2283127752e+01 2.2494586797e+02 8.0711031285e+01 0.0000e+00 0.0000e+00
       -6  2    1    2    0  503 +8.1050473754e+01 -2.4228186640e+02 -3.3000663183e+02 4.5200474985e+02 1.7359215061e+02 0.0000e+00 0.0000e+00
      -24  2    5    5    0    0 +8.2946319351e+01 -2.2745652766e+02 -3.4641066683e+02 4.2932067474e+02 7.5493892455e+01 0.0000e+00 0.0000e+00
        5  1    3    3  501    0 -9.2873770843e+00 +5.8370992727e+01 -5.6056942448e+01 8.1595949419e+01 4.7000000000e+00 0.0000e+00 -1.0000e+00
      -13  1    4    4    0    0 -2.0228515620e+01 +1.4817116444e+02 +2.8811744406e+01 1.5229577615e+02 0.0000000000e+00 0.0000e+00 1.0000e+00
       14  1    4    4    0    0 +1.9841988688e+01 +4.5001583202e+01 +5.3471383347e+01 7.2650091829e+01 0.0000000000e+00 0.0000e+00 -1.0000e+00
       -5  1    5    5    0  503 -1.8958455969e+00 -1.4825338741e+01 +1.6404034998e+01 2.2684075109e+01 4.7000000000e+00 0.0000e+00 1.0000e+00
       13  1    6    6    0    0 +8.9839816806e+00 -4.8914095432e+01 -2.8614274779e+01 5.7376627470e+01 0.0000000000e+00 0.0000e+00 -1.0000e+00
      -14  1    6    6    0    0 +7.3962337671e+01 -1.7854243223e+02 -3.1779639205e+02 3.7194404727e+02 0.0000000000e+00 0.0000e+00 1.0000e+00
        1  1    1    2  502    0 -7.1376569738e+01 -9.2618739686e+00 -9.0784581340e+02 9.1069447013e+02 0.0000000000e+00 0.0000e+00 1.0000e+00
<mgrwt>
<rscale>  3 0.30486408E+03</rscale>
<asrwt>0</asrwt>
<pdfrwt beam="1">  1       21 0.35201137E-01 0.30495517E+03</pdfrwt>
<pdfrwt beam="2">  1        1 0.22160517E+00 0.30495517E+03</pdfrwt>
<totfact> 0.65188298E+02</totfact>
</mgrwt>
</event>
<event>
12      1 +1.4674046e+01 1.88784400e+02 7.54677100e-03 1.15959200e-01
       21 -1    0    0  503  502 +0.0000000000e+00 +0.0000000000e+00 +1.7900376905e+02 1.7900376905e+02 0.0000000000e+00 0.0000e+00 1.0000e+00
       21 -1    0    0  501  503 -0.0000000000e+00 -0.0000000000e+00 -7.2931059025e+02 7.2931059025e+02 0.0000000000e+00 0.0000e+00 1.0000e+00
        6  2    1    2  501    0 -1.5842209416e+00 +7.5227189576e+01 -6.6241267455e+02 6.8875280159e+02 1.7299777596e+02 0.0000e+00 0.0000e+00
       24  2    3    3    0    0 +1.2625008274e+01 +2.5752538916e+01 -6.0529890916e+02 6.1172218787e+02 8.3634213170e+01 0.0000e+00 0.0000e+00
       -6  2    1    2    0  502 +1.5842209416e+00 -7.5227189576e+01 +1.1210585335e+02 2.1956155771e+02 1.7314131645e+02 0.0000e+00 0.0000e+00
      -24  2    5    5    0    0 -4.3394164116e+01 -4.5903256914e+00 +9.9532930181e+01 1.3475123959e+02 7.9667859345e+01 0.0000e+00 0.0000e+00
        5  1    3    3  501    0 -1.4209229215e+01 +4.9474650660e+01 -5.7113765393e+01 7.7030613721e+01 4.7000000000e+00 0.0000e+00 -1.0000e+00
      -13  1    4    4    0    0 +3.2359019801e+01 +2.5466232242e+01 -1.3814522804e+02 1.4415179214e+02 0.0000000000e+00 0.0000e+00 1.0000e+00
       14  1    4    4    0    0 -1.9734011527e+01 +2.8630667447e-01 -4.6715368112e+02 4.6757039573e+02 0.0000000000e+00 0.0000e+00 -1.0000e+00
       -5  1    5    5    0  502 +4.4978385058e+01 -7.0636863885e+01 +1.2572923171e+01 8.4810318116e+01 4.7000000000e+00 0.0000e+00 1.0000e+00
       13  1    6    6    0    0 +1.0375197083e+01 +2.6217103570e+01 +3.8983943622e+01 4.8111631592e+01 0.0000000000e+00 0.0000e+00 -1.0000e+00
      -14  1    6    6    0    0 -5.3769361199e+01 -3.0807429262e+01 +6.0548986559e+01 8.6639608002e+01 0.0000000000e+00 0.0000e+00 1.0000e+00
<mgrwt>
<rscale>  2 0.18875150E+03</rscale>
<asrwt>0</asrwt>
<pdfrwt beam="1">  1       21 0.27539041E-01 0.18878441E+03</pdfrwt>
<pdfrwt beam="2">  1       21 0.11220163E+00 0.18878441E+03</pdfrwt>
<totfact> 0.78537935E+03</totfact>
</mgrwt>
</event>
<event>
13      3 +1.4674046e+01 7.88058300e+02 7.54677100e-03 9.71959400e-02
       21 -1    0    0  504  503 +0.0000000000e+00 +0.0000000000e+00 +3.8496829955e+02 3.8496829955e+02 0.0000000000e+00 0.0000e+00 1.0000e+00
        2 -1    0    0  503    0 -0.0000000000e+00 -0.0000000000e+00 -2.5693507868e+03 2.5693507868e+03 0.0000000000e+00 0.0000e+00 1.0000e+00
       -6  2    1    2    0  502 -2.5875091415e+02 +3.5328476332e+02 -1.6944762187e+02 5.0068422486e+02 1.7381034750e+02 0.0000e+00 0.0000e+00
      -24  2    3    3    0    0 -2.0036101004e+02 +3.4359341270e+02 -1.1955883891e+02 4.2313241093e+02 8.0905831810e+01 0.0000e+00 0.0000e+00
       24  2    1    2    0    0 +2.3091134034e+02 +1.4621087133e+02 -3.0293624331e+02 4.1553201047e+02 7.8732574081e+01 0.0000e+00 0.0000e+00
        5  1    1    2  501    0 +9.7591615376e+01 -5.0825372188e+02 -3.6999271812e+02 6.3620961220e+02 4.7000000000e+00 0.0000e+00 -1.0000e+00
      -13  1    5    5    0    0 +1.5588380379e+02 +6.6653766719e+01 -2.2274953890e+02 2.7992828007e+02 0.0000000000e+00 0.0000e+00 1.0000e+00
       14  1    5    5    0    0 +7.5027536545e+01 +7.9557104607e+01 -8.0186704412e+01 1.3560373040e+02 0.0000000000e+00 0.0000e+00 -1.0000e+00
       -5  1    3    3    0  502 -5.8389904106e+01 +9.6913506205e+00 -4.9888782965e+01 7.7551813932e+01 4.7000000000e+00 0.0000e+00 1.0000e+00
       13  1    4    4    0    0 -1.1043012275e+02 +2.4186446440e+02 -4.9892458997e+01 2.7052262127e+02 0.0000000000e+00 0.0000e+00 -1.0000e+00
      -14  1    4    4    0    0 -8.9930887292e+01 +1.0172894830e+02 -6.9666379912e+01 1.5260978966e+02 0.0000000000e+00 0.0000e+00 1.0000e+00
       21  1    1    2  504  501 -3.7046313805e+01 -1.1332862156e+01 +1.7027548137e+01 4.2317851160e+01 0.0000000000e+00 0.0000e+00 -1.0000e+00
        2  1    1    2  502    0 -3.2705727762e+01 +2.0090949394e+01 -1.3590334521e+03 1.3595753877e+03 0.0000000000e+00 0.0000e+00 1.0000e+00
<mgrwt>
<rscale>  4 0.69862041E+03</rscale>
<asrwt>0</asrwt>
<pdfrwt beam="1">  1       21 0.59225894E-01 0.78805833E+03</pdfrwt>
<pdfrwt beam="2">  1        2 0.39528472E+00 0.78805833E+03</pdfrwt>
<totfact> 0.97857346E+01</totfact>
</mgrwt>
</event>
<event>
14      3 +1.4674046e+01 2.08699300e+02 7.54677100e-03 1.14262400e-01
       21 -1    0    0  504  503 +0.0000000000e+00 +0.0000000000e+00 +3.9970340579e+02 3.9970340579e+02 0.0000000000e+00 0.0000e+00 -1.0000e+00
        1 -1    0    0  501    0 -0.0000000000e+00 -0.0000000000e+00 -1.8764809991e+03 1.8764809991e+03 0.0000000000e+00 0.0000e+00 1.0000e+00
        6  2    1    2  501    0 -1.0035825903e+02 -2.6949383005e+00 +2.3663028841e+02 3.1002548143e+02 1.7332877111e+02 0.0000e+00 0.0000e+00
       24  2    3    3    0    0 -1.5605915048e+01 -4.1024929889e+01 +1.7870826656e+02 2.0034777777e+02 7.9221197056e+01 0.0000e+00 0.0000e+00
       -6  2    1    2    0  503 +1.8077939386e+02 +4.4307199585e+01 -5.0748697598e+01 2.5925325304e+02 1.7318343374e+02 0.0000e+00 0.0000e+00
      -24  2    5    5    0    0 +1.7566640843e+02 +3.3296108352e+01 +1.0951874981e+01 1.9619425363e+02 8.0030767261e+01 0.0000e+00 0.0000e+00
        5  1    3    3  501    0 -8.4752343979e+01 +3.8329991589e+01 +5.7922021851e+01 1.0967770366e+02 4.7000000000e+00 0.0000e+00 -1.0000e+00
      -13  1    4    4    0    0 +2.6208592978e+01 +8.0045078553e-01 +8.9921367393e+01 9.3666340706e+01 0.0000000000e+00 0.0000e+00 1.0000e+00
       14  1    4    4    0    0 -4.1814508026e+01 -4.1825380675e+01 +8.8786899166e+01 1.0668143706e+02 0.0000000000e+00 0.0000e+00 -1.0000e+00
       -5  1    5    5    0  503 +5.1129854345e+00 +1.1011091233e+01 -6.1700572579e+01 6.3058999411e+01 4.7000000000e+00 0.0000e+00 1.0000e+00
       13  1    6    6    0    0 +9.5331536522e+01 -1.5114963636e+01 +2.8778347775e+01 1.0072118586e+02 0.0000000000e+00 0.0000e+00 -1.0000e+00
      -14  1    6    6    0    0 +8.0334871907e+01 +4.8411071988e+01 -1.7826472794e+01 9.5473067761e+01 0.0000000000e+00 0.0000e+00 1.0000e+00
       21  1    1    2  504  502 -4.3023169866e+01 -2.6727534036e+01 -7.4349685857e+00 5.1192118328e+01 0.0000000000e+00 0.0000e+00 1.0000e+00
        1  1    1    2  502    0 -3.7397964969e+01 -1.4884727248e+01 -1.6552242155e+03 1.6557135521e+03 0.0000000000e+00 0.0000e+00 1.0000e+00
<mgrwt>
<rscale>  4 0.20866915E+03</rscale>
<asrwt>0</asrwt>
<pdfrwt beam="1">  1       21 0.61492833E-01 0.20869933E+03</pdfrwt>
<pdfrwt beam="2">  1        1 0.28868938E+00 0.20869933E+03</pdfrwt>
<totfact> 0.11232607E+02</totfact>
</mgrwt>
</event>
<event>
13      2 +1.4674046e+01 4.08490700e+02 7.54677100e-03 1.06527100e-01
       21 -1    0    0  501  502 +0.0000000000e+00 +0.0000000000e+00 +2.5614255531e+03 2.5614255531e+03 0.0000000000e+00 0.0000e+00 1.0000e+00
       21 -1    0    0  502  503 -0.0000000000e+00 -0.0000000000e+00 -1.9657984193e+02 1.9657984193e+02 0.0000000000e+00 0.0000e+00 1.0000e+00
       -6  2    1    2    0  504 +9.5049836085e+01 -5.4078643393e+01 +3.0980935761e+02 3.7121575431e+02 1.7280140963e+02 0.0000e+00 0.0000e+00
      -24  2    3    3    0    0 +1.2516298699e+01 -7.7527263060e+01 +2.1923028100e+02 2.4636271398e+02 8.0408559763e+01 0.0000e+00 0.0000e+00
        6  2    1    2  501    0 -1.2237246009e+02 +3.6031756976e+02 +2.0363293316e+03 2.0787656831e+03 1.7270161634e+02 0.0000e+00 0.0000e+00
       24  2    5    5    0    0 +7.4224776271e+00 +1.1802410346e+02 +7.2683636047e+02 7.4072727513e+02 8.0006368801e+01 0.0000e+00 0.0000e+00
        5  1    5    5  501    0 -1.2979493772e+02 +2.4229346629e+02 +1.3094929712e+03 1.3380384080e+03 4.7000000000e+00 0.0000e+00 -1.0000e+00
      -13  1    6    6    0    0 +3.4956505140e+01 +1.0595698971e+02 +5.3084680221e+02 5.4244554412e+02 0.0000000000e+00 0.0000e+00 1.0000e+00
       14  1    6    6    0    0 -2.7534027513e+01 +1.2067113757e+01 +1.9598955826e+02 1.9828173101e+02 0.0000000000e+00 0.0000e+00 -1.0000e+00
       -5  1    3    3    0  504 +8.2533537386e+01 +2.3448619667e+01 +9.0579076618e+01 1.2485304033e+02 4.7000000000e+00 0.0000e+00 1.0000e+00
       13  1    4    4    0    0 -3.2923226953e+01 -3.2074940299e+01 +6.8390904926e+01 8.2401799402e+01 0.0000000000e+00 0.0000e+00 -1.0000e+00
      -14  1    4    4    0    0 +4.5439525651e+01 -4.5452322761e+01 +1.5083937607e+02 1.6396091458e+02 0.0000000000e+00 0.0000e+00 1.0000e+00
       21  1    1    2  504  503 +2.7322624009e+01 -3.0623892636e+02 +1.8707021912e+01 3.0802395763e+02 0.0000000000e+00 0.0000e+00 1.0000e+00
<mgrwt>
<rscale>  3 0.34360438E+03</rscale>
<asrwt>0</asrwt>
<pdfrwt beam="1">  1       21 0.39406545E+00 0.40849066E+03</pdfrwt>
<pdfrwt beam="2">  1       21 0.30243054E-01 0.40849066E+03</pdfrwt>
<totfact> 0.76913364E+01</totfact>
</mgrwt>
</event>
<event>
13      2 +1.4674046e+01 2.11566800e+02 7.54677100e-03 1.14033100e-01
        2 -1    0    0  502    0 +0.0000000000e+00 +0.0000000000e+00 +1.9568211890e+03 1.9568211890e+03 0.0000000000e+00 0.0000e+00 1.0000e+00
       -2 -1    0    0    0  501 -0.0000000000e+00 -0.0000000000e+00 -5.3508019075e+01 5.3508019075e+01 0.0000000000e+00 0.0000e+00 -1.0000e+00
        6  2    1    2  502    0 +1.2362740043e+02 +2.5473401000e+01 +9.7166764687e+02 9.9547642873e+02 1.7579156943e+02 0.0000e+00 0.0000e+00
       24  2    3    3    0    0 +1.2268566213e+02 +6.0117556567e+01 +9.1953097915e+02 9.3269564737e+02 7.5617833350e+01 0.0000e+00 0.0000e+00
       -6  2    1    2    0  503 -1.1518026083e+02 +6.4651633494e+00 +9.5303675752e+02 9.7549530265e+02 1.7321585806e+02 0.0000e+00 0.0000e+00
      -24  2    5    5    0    0 -6.9584190696e+01 +6.2199851391e+01 +4.0244507279e+02 4.2019479809e+02 7.6751877015e+01 0.0000e+00 0.0000e+00
        5  1    3    3  502    0 +9.4173829683e-01 -3.4644155567e+01 +5.2136667727e+01 6.2780781356e+01 4.7000000000e+00 0.0000e+00 -1.0000e+00
      -13  1    4    4    0    0 +8.8439496890e+01 +7.5784093948e+01 +6.2414612892e+02 6.3491980891e+02 0.0000000000e+00 0.0000e+00 1.0000e+00
       14  1    4    4    0    0 +3.4246165239e+01 -1.5666537381e+01 +2.9538485023e+02 2.9777583846e+02 0.0000000000e+00 0.0000e+00 -1.0000e+00
       -5  1    5    5    0  503 -4.5596070135e+01 -5.5734688041e+01 +5.5059168474e+02 5.5530050456e+02 4.7000000000e+00 0.0000e+00 1.0000e+00
       13  1    6    6    0    0 -8.5164031564e+01 +4.7661472233e+01 +2.9718548214e+02 3.1279983856e+02 0.0000000000e+00 0.0000e+00 -1.0000e+00
      -14  1    6    6    0    0 +1.5579840868e+01 +1.4538379158e+01 +1.0525959064e+02 1.0739495953e+02 0.0000000000e+00 0.0000e+00 1.0000e+00
       21  1    1    2  503  501 -8.4471395961e+00 -3.1938564349e+01 -2.1391234467e+01 3.9357476698e+01 0.0000000000e+00 0.0000e+00 -1.0000e+00
<mgrwt>
<rscale>  3 0.21156675E+03</rscale>
<asrwt>0</asrwt>
<pdfrwt beam="1">  1        2 0.30104936E+00 0.21156675E+03</pdfrwt>
<pdfrwt beam="2">  1       -2 0.82320044E-02 0.21156675E+03</pdfrwt>
<totfact> 0.71514581E+02</totfact>
</mgrwt>
</event>
<event>
14      3 +1.4674046e+01 2.62600600e+02 7.54677100e-03 1.10559100e-01
        2 -1    0    0  504    0 +0.0000000000e+00 +0.0000000000e+00 +1.8375578906e+03 1.8375578906e+03 0.0000000000e+00 0.0000e+00 -1.0000e+00
       -2 -1    0    0    0  501 -0.0000000000e+00 -0.0000000000e+00 -1.1026701598e+02 1.1026701598e+02 0.0000000000e+00 0.0000e+00 1.0000e+00
        6  2    1    2  502    0 -5.5764570683e+01 -2.7733733501e+02 +3.4216330353e+02 4.7588832710e+02 1.7137178548e+02 0.0000e+00 0.0000e+00
       24  2    3    3    0    0 -5.3010091809e+01 -6.3337513543e+01 +1.2748391672e+02 1.7271702262e+02 8.2202861421e+01 0.0000e+00 0.0000e+00
       -6  2    1    2    0  503 +2.8669502206e+01 +1.3038990048e+02 +2.7543342573e+02 3.5154282288e+02 1.7290262521e+02 0.0000e+00 0.0000e+00
      -24  2    5    5    0    0 -2.2036239073e+01 +3.1401895988e+01 +1.9510087112e+02 2.1426534271e+02 7.9834906337e+01 0.0000e+00 0.0000e+00
        5  1    3    3  502    0 -2.7544788735e+00 -2.1399982147e+02 +2.1467938681e+02 3.0317130448e+02 4.7000000000e+00 0.0000e+00 -1.0000e+00
      -13  1    4    4    0    0 -6.5033031075e+01 -3.9086875048e+01 +5.0580347656e+01 9.1189092005e+01 0.0000000000e+00 0.0000e+00 1.0000e+00
       14  1    4    4    0    0 +1.2022939266e+01 -2.4250638495e+01 +7.6903569060e+01 8.1527930614e+01 0.0000000000e+00 0.0000e+00 -1.0000e+00
       -5  1    5    5    0  503 +5.0705741279e+01 +9.8988004492e+01 +8.0332554605e+01 1.3727748017e+02 4.7000000000e+00 0.0000e+00 1.0000e+00
       13  1    6    6    0    0 -2.0124791321e+01 +4.5156873009e+01 +5.6937314938e+01 7.5405624711e+01 0.0000000000e+00 0.0000e+00 -1.0000e+00
      -14  1    6    6    0    0 -1.9114477522e+00 -1.3754977021e+01 +1.3816355618e+02 1.3885971800e+02 0.0000000000e+00 0.0000e+00 1.0000e+00
       21  1    1    2  503  501 -2.6803196112e+00 +8.9889296326e+01 +6.7332608284e+02 6.7930500038e+02 0.0000000000e+00 0.0000e+00 -1.0000e+00
       21  1    1    2  504  502 +2.9775388088e+01 +5.7058138202e+01 +4.3636806248e+02 4.4108875618e+02 0.0000000000e+00 0.0000e+00 -1.0000e+00
<mgrwt>
<rscale>  4 0.26260058E+03</rscale>
<asrwt>0</asrwt>
<pdfrwt beam="1">  1        2 0.28270119E+00 0.26260058E+03</pdfrwt>
<pdfrwt beam="2">  1       -2 0.16964158E-01 0.26260058E+03</pdfrwt>
<totfact> 0.25368070E+02</totfact>
</mgrwt>
</event>
<event>
14      3 +1.4674046e+01 1.92006200e+02 7.54677100e-03 1.16115500e-01
       21 -1    0    0  503  502 +0.0000000000e+00 +0.0000000000e+00 +3.7079764272e+02 3.7079764272e+02 0.0000000000e+00 0.0000e+00 1.0000e+00
       21 -1    0    0  505  503 -0.0000000000e+00 -0.0000000000e+00 -1.8817924158e+03 1.8817924158e+03 0.0000000000e+00 0.0000e+00 -1.0000e+00
        6  2    1    2  501    0 -5.3511297377e+01 +6.0617063228e+01 -3.2305349475e+02 3.7481446779e+02 1.7200127178e+02 0.0000e+00 0.0000e+00
       24  2    3    3    0    0 -9.4576196543e+01 +7.5700275253e+01 -1.8939727599e+02 2.3410233597e+02 6.5248654619e+01 0.0000e+00 0.0000e+00
       -6  2    1    2    0  502 +6.4765507488e+00 +2.0550336843e+01 +3.1635224984e+02 3.7026396206e+02 1.9118680282e+02 0.0000e+00 0.0000e+00
      -24  2    5    5    0    0 +5.8197585463e+00 +5.0203136368e+01 +3.2673883567e+02 3.3848832578e+02 7.2538648090e+01 0.0000e+00 0.0000e+00
        5  1    3    3  501    0 +4.1064899165e+01 -1.5083212025e+01 -1.3365621875e+02 1.4071213181e+02 4.7000000000e+00 0.0000e+00 -1.0000e+00
      -13  1    4    4    0    0 -6.0483485959e+01 +4.0368266107e+01 -1.6270903930e+02 1.7821919216e+02 0.0000000000e+00 0.0000e+00 1.0000e+00
       14  1    4    4    0    0 -3.4092710584e+01 +3.5332009146e+01 -2.6688236688e+01 5.5883143816e+01 0.0000000000e+00 0.0000e+00 -1.0000e+00
       -5  1    5    5    0  502 +6.5679220255e-01 -2.9652799525e+01 -1.0386585832e+01 3.1775636278e+01 4.7000000000e+00 0.0000e+00 1.0000e+00
       13  1    6    6    0    0 -2.5651752200e+01 +5.0824378708e+01 +2.1026418731e+02 2.1783516320e+02 0.0000000000e+00 0.0000e+00 -1.0000e+00
      -14  1    6    6    0    0 +3.1471510746e+01 -6.2124233997e-01 +1.1647464836e+02 1.2065316258e+02 0.0000000000e+00 0.0000e+00 1.0000e+00
       21  1    1    2  504  501 +1.2200534465e+01 -2.6310691213e+01 -2.8081845496e+02 2.8231207937e+02 0.0000000000e+00 0.0000e+00 -1.0000e+00
       21  1    1    2  505  504 +3.4834212164e+01 -5.4856708858e+01 -1.2234750732e+03 1.2251995493e+03 0.0000000000e+00 0.0000e+00 -1.0000e+00
<mgrwt>
<rscale>  4 0.18704341E+03</rscale>
<asrwt>0</asrwt>
<pdfrwt beam="1">  1       21 0.57045791E-01 0.19200617E+03</pdfrwt>
<pdfrwt beam="2">  1       21 0.28950653E+00 0.19200617E+03</pdfrwt>
<totfact> 0.11335550E+02</totfact>
</mgrwt>
</event>
<event>
13      2 +1.4674046e+01 2.81675300e+02 7.54677100e-03 1.09563900e-01
       21 -1    0    0  503  502 +0.0000000000e+00 +0.0000000000e+00 +1.8305252878e+02 1.8305252878e+02 0.0000000000e+00 0.0000e+00 1.0000e+00
       21 -1    0    0  504  503 -0.0000000000e+00 -0.0000000000e+00 -1.0244647092e+03 1.0244647092e+03 0.0000000000e+00 0.0000e+00 -1.0000e+00
        6  2    1    2  501    0 +1.2040361196e+02 +2.1813355432e+02 -7.6301835815e+02 8.2554276205e+02 1.9298849659e+02 0.0000e+00 0.0000e+00
       24  2    3    3    0    0 +7.7103047488e+01 +1.3188662053e+02 -6.6980655690e+02 6.9128926168e+02 7.6818350908e+01 0.0000e+00 0.0000e+00
       -6  2    1    2    0  502 -6.1797590738e+01 -1.8872920563e+02 +1.1434822503e+01 2.7076086674e+02 1.8369277752e+02 0.0000e+00 0.0000e+00
      -24  2    5    5    0    0 +3.3455850786e+01 -8.3254575038e+01 +3.5855277946e+01 1.2648140020e+02 8.1616943240e+01 0.0000e+00 0.0000e+00
        5  1    3    3  501    0 +4.3300564470e+01 +8.6246933791e+01 -9.3211801245e+01 1.3425350038e+02 4.7000000000e+00 0.0000e+00 -1.0000e+00
      -13  1    4    4    0    0 -1.5326249514e+01 +2.5647660642e+01 -1.3358985601e+02 1.3689027010e+02 0.0000000000e+00 0.0000e+00 1.0000e+00
       14  1    4    4    0    0 +9.2429297002e+01 +1.0623895988e+02 -5.3621670089e+02 5.5439899157e+02 0.0000000000e+00 0.0000e+00 -1.0000e+00
       -5  1    5    5    0  502 -9.5253441525e+01 -1.0547463059e+02 -2.4420455443e+01 1.4427946654e+02 4.7000000000e+00 0.0000e+00 1.0000e+00
       13  1    6    6    0    0 +2.0345929307e+00 -7.4560231778e+01 -4.3550570668e+00 7.4715020265e+01 0.0000000000e+00 0.0000e+00 -1.0000e+00
      -14  1    6    6    0    0 +3.1421257856e+01 -8.6943432606e+00 +4.0210335013e+01 5.1766379937e+01 0.0000000000e+00 0.0000e+00 1.0000e+00
       21  1    1    2  504  501 -5.8606021220e+01 -2.9404348689e+01 -8.9828644782e+01 1.1121360919e+02 0.0000000000e+00 0.0000e+00 -1.0000e+00
<mgrwt>
<rscale>  3 0.28009058E+03</rscale>
<asrwt>0</asrwt>
<pdfrwt beam="1">  1       21 0.28161927E-01 0.28167532E+03</pdfrwt>
<pdfrwt beam="2">  1       21 0.15760996E+00 0.28167532E+03</pdfrwt>
<totfact> 0.29485074E+03</totfact>
</mgrwt>
</event>
<event>
14      3 +1.4674046e+01 1.93436700e+02 7.54677100e-03 1.15617000e-01
       21 -1    0    0  504  502 +0.0000000000e+00 +0.0000000000e+00 +3.6776989862e+02 3.6776989862e+02 0.0000000000e+00 0.0000e+00 1.0000e+00
       21 -1    0    0  501  503 -0.0000000000e+00 -0.0000000000e+00 -8.0995625215e+02 8.0995625215e+02 0.0000000000e+00 0.0000e+00 -1.0000e+00
        6  2    1    2  501    0 -7.0510240401e+01 +1.9375663212e+02 -4.4070048097e+02 5.1464375705e+02 1.6771391194e+02 0.0000e+00 0.0000e+00
       24  2    3    3    0    0 -8.2484839049e+01 +6.1273644932e+01 -1.6096781121e+02 2.0485739610e+02 7.4146532307e+01 0.0000e+00 0.0000e+00
       -6  2    1    2    0  502 +3.9433055955e+01 -7.2253087006e+01 +2.8749050573e+02 3.4479825262e+02 1.7163790270e+02 0.0000e+00 0.0000e+00
      -24  2    5    5    0    0 +7.9606907422e+01 -6.6749282530e+01 +1.3784051261e+02 1.8968074669e+02 7.8651461022e+01 0.0000e+00 0.0000e+00
        5  1    3    3  501    0 +1.1974598648e+01 +1.3248298718e+02 -2.7973266976e+02 3.0978636096e+02 4.7000000000e+00 0.0000e+00 -1.0000e+00
      -13  1    4    4    0    0 -4.7163767976e+01 +7.1361524177e+01 -8.5594964293e+01 1.2100985933e+02 0.0000000000e+00 0.0000e+00 1.0000e+00
       14  1    4    4    0    0 -3.5321071072e+01 -1.0087879245e+01 -7.5372846920e+01 8.3847536768e+01 0.0000000000e+00 0.0000e+00 -1.0000e+00
       -5  1    5    5    0  502 -4.0173851467e+01 -5.5038044758e+00 +1.4964999312e+02 1.5511750593e+02 4.7000000000e+00 0.0000e+00 1.0000e+00
       13  1    6    6    0    0 +4.7223099483e+01 +8.4100509728e+00 +5.9066793294e+01 7.6089658642e+01 0.0000000000e+00 0.0000e+00 -1.0000e+00
      -14  1    6    6    0    0 +3.2383807938e+01 -7.5159333503e+01 +7.8773719313e+01 1.1359108805e+02 0.0000000000e+00 0.0000e+00 1.0000e+00
       21  1    1    2  504  505 -7.5933265069e+00 -2.6692025302e+01 -3.6633843145e+01 4.5958255904e+01 0.0000000000e+00 0.0000e+00 -1.0000e+00
       21  1    1    2  505  503 +3.8670510953e+01 -9.4811519807e+01 -2.5234253514e+02 2.7232588519e+02 0.0000000000e+00 0.0000e+00 -1.0000e+00
<mgrwt>
<rscale>  4 0.19256251E+03</rscale>
<asrwt>0</asrwt>
<pdfrwt beam="1">  1       21 0.56579985E-01 0.19343671E+03</pdfrwt>
<pdfrwt beam="2">  1       21 0.12460865E+00 0.19343671E+03</pdfrwt>
<totfact> 0.14112350E+03</totfact>
</mgrwt>
</event>
<event>
13      2 +1.4674046e+01 2.09805900e+02 7.54677100e-03 1.14172400e-01
       21 -1    0    0  504  502 +0.0000000000e+00 +0.0000000000e+00 +4.2422903295e+02 4.2422903295e+02 0.0000000000e+00 0.0000e+00 -1.0000e+00
       21 -1    0    0  502  503 -0.0000000000e+00 -0.0000000000e+00 -3.7439966292e+02 3.7439966292e+02 0.0000000000e+00 0.0000e+00 1.0000e+00
       -6  2    1    2    0  503 +6.4995637999e+01 +6.0699349141e+01 +3.0507022525e+02 3.6177371295e+02 1.7292638058e+02 0.0000e+00 0.0000e+00
      -24  2    3    3    0    0 -2.4343711069e+01 +5.1751994717e+01 +1.0677703801e+02 1.4404945488e+02 7.7961685334e+01 0.0000e+00 0.0000e+00
        6  2    1    2  501    0 -6.2310297154e+01 -1.0497170574e+02 -3.0431722735e+02 3.7070558448e+02 1.7295092763e+02 0.0000e+00 0.0000e+00
       24  2    5    5    0    0 -6.9990488930e+00 -1.2284775920e+02 -1.7639259453e+02 2.3011508283e+02 8.1841586728e+01 0.0000e+00 0.0000e+00
        5  1    5    5  501    0 -5.5311248261e+01 +1.7876053459e+01 -1.2792463282e+02 1.4059050165e+02 4.7000000000e+00 0.0000e+00 -1.0000e+00
      -13  1    6    6    0    0 +3.0157555768e+01 -3.9627393194e+01 -9.7890080552e+01 1.0982839492e+02 0.0000000000e+00 0.0000e+00 1.0000e+00
       14  1    6    6    0    0 -3.7156604661e+01 -8.3220366004e+01 -7.8502513977e+01 1.2028668791e+02 0.0000000000e+00 0.0000e+00 -1.0000e+00
       -5  1    3    3    0  503 +8.9339349068e+01 +8.9473544238e+00 +1.9829318724e+02 2.1772425807e+02 4.7000000000e+00 0.0000e+00 1.0000e+00
       13  1    4    4    0    0 +1.6496774776e+01 +1.3184634402e+01 +7.8246917903e+01 8.1046642889e+01 0.0000000000e+00 0.0000e+00 -1.0000e+00
      -14  1    4    4    0    0 -4.0840485845e+01 +3.8567360315e+01 +2.8530120105e+01 6.3002811992e+01 0.0000000000e+00 0.0000e+00 1.0000e+00
       21  1    1    2  504  501 -2.6853408447e+00 +4.4272356598e+01 +4.9076372119e+01 6.6149398444e+01 0.0000000000e+00 0.0000e+00 1.0000e+00
<mgrwt>
<rscale>  3 0.20980086E+03</rscale>
<asrwt>0</asrwt>
<pdfrwt beam="1">  1       21 0.65266006E-01 0.20980592E+03</pdfrwt>
<pdfrwt beam="2">  1       21 0.57599948E-01 0.20980592E+03</pdfrwt>
<totfact> 0.60310431E+03</totfact>
</mgrwt>
</event>
<event>
11      1 +1.4674046e+01 1.95070200e+02 7.54677100e-03 1.16406500e-01
       21 -1    0    0  501  502 +0.0000000000e+00 +0.0000000000e+00 +4.3588638296e+02 4.3588638296e+02 0.0000000000e+00 0.0000e+00 -1.0000e+00
       21 -1    0    0  502  503 -0.0000000000e+00 -0.0000000000e+00 -7.0179926956e+01 7.0179926956e+01 0.0000000000e+00 0.0000e+00 -1.0000e+00
       -6  2    1    2    0  503 +6.7698217142e+00 +9.0071718565e+01 +1.8959564014e+02 2.7202738010e+02 1.7289778424e+02 0.0000e+00 0.0000e+00
      -24  2    3    3    0    0 +5.4606657803e+01 +1.0151146023e+01 +6.1871656619e+01 1.1387818861e+02 7.7815211282e+01 0.0000e+00 0.0000e+00
       24  2    1    2    0    0 +1.2952315834e+01 -6.1947841353e+01 +7.2495879503e+01 1.2477749922e+02 7.9425904038e+01 0.0000e+00 0.0000e+00
        5  1    1    2  501    0 -1.9722137548e+01 -2.8123877212e+01 +1.0361493636e+02 1.0926143060e+02 4.7000000000e+00 0.0000e+00 -1.0000e+00
      -13  1    5    5    0    0 +3.3290809799e+01 -6.6751903872e+01 +7.2295375359e+01 1.0387837112e+02 0.0000000000e+00 0.0000e+00 1.0000e+00
       14  1    5    5    0    0 -2.0338493965e+01 +4.8040625191e+00 +2.0050414463e-01 2.0899128101e+01 0.0000000000e+00 0.0000e+00 -1.0000e+00
       -5  1    3    3    0  503 -4.7836836088e+01 +7.9920572542e+01 +1.2772398352e+02 1.5814919149e+02 4.7000000000e+00 0.0000e+00 1.0000e+00
       13  1    4    4    0    0 +6.2915502913e+01 +3.3080472771e+01 +4.3398739578e+01 8.3283424417e+01 0.0000000000e+00 0.0000e+00 -1.0000e+00
      -14  1    4    4    0    0 -8.3088451106e+00 -2.2929326748e+01 +1.8472917041e+01 3.0594764195e+01 0.0000000000e+00 0.0000e+00 1.0000e+00
<mgrwt>
<rscale>  2 0.18391714E+03</rscale>
<asrwt>0</asrwt>
<pdfrwt beam="1">  1       21 0.67059442E-01 0.19507021E+03</pdfrwt>
<pdfrwt beam="2">  1       21 0.10796912E-01 0.19507021E+03</pdfrwt>
<totfact> 0.14411476E+05</totfact>
</mgrwt>
</event>
<event>
12      1 +1.4674046e+01 1.92288000e+02 7.54677100e-03 1.15674200e-01
       21 -1    0    0  501  502 +0.0000000000e+00 +0.0000000000e+00 +4.1246451429e+02 4.1246451429e+02 0.0000000000e+00 0.0000e+00 1.0000e+00
       21 -1    0    0  502  503 -0.0000000000e+00 -0.0000000000e+00 -1.2800871221e+02 1.2800871221e+02 0.0000000000e+00 0.0000e+00 1.0000e+00
       -6  2    1    2    0  503 +1.7637869049e+01 -7.9290930458e+01 -7.4104138663e+00 1.9095849661e+02 1.7266177086e+02 0.0000e+00 0.0000e+00
      -24  2    3    3    0    0 +7.9303689925e+01 -6.3476608421e+01 -6.1216031893e+00 1.2711088680e+02 7.6166583645e+01 0.0000e+00 0.0000e+00
        6  2    1    2  501    0 -1.7637869049e+01 +7.9290930458e+01 +2.9186621594e+02 3.4951472990e+02 1.7428858921e+02 0.0000e+00 0.0000e+00
       24  2    5    5    0    0 -1.7781180861e+01 +1.2229565950e+02 +2.0706953195e+02 2.5432021916e+02 8.0799653987e+01 0.0000e+00 0.0000e+00
        5  1    5    5  501    0 +1.4331181170e-01 -4.3004729047e+01 +8.4796683987e+01 9.5194510734e+01 4.7000000000e+00 0.0000e+00 -1.0000e+00
      -13  1    6    6    0    0 +1.4065808528e+00 +4.2832487557e+01 +1.4633399524e+02 1.5248028930e+02 0.0000000000e+00 0.0000e+00 1.0000e+00
       14  1    6    6    0    0 -1.9187761714e+01 +7.9463171947e+01 +6.0735536712e+01 1.0183992987e+02 0.0000000000e+00 0.0000e+00 -1.0000e+00
       -5  1    3    3    0  503 -6.1665820875e+01 -1.5814322037e+01 -1.2888106770e+00 6.3847609812e+01 4.7000000000e+00 0.0000e+00 1.0000e+00
       13  1    4    4    0    0 +5.3740653538e+01 -2.7341881063e+01 +3.2384939683e+01 6.8442827389e+01 0.0000000000e+00 0.0000e+00 -1.0000e+00
      -14  1    4    4    0    0 +2.5563036387e+01 -3.6134727358e+01 -3.8506542873e+01 5.8668059407e+01 0.0000000000e+00 0.0000e+00 1.0000e+00
<mgrwt>
<rscale>  2 0.19191857E+03</rscale>
<asrwt>0</asrwt>
<pdfrwt beam="1">  1       21 0.63456079E-01 0.19228796E+03</pdfrwt>
<pdfrwt beam="2">  1       21 0.19693648E-01 0.19228796E+03</pdfrwt>
<totfact> 0.54567681E+04</totfact>
</mgrwt>
</event>
<event>
12      1 +1.4674046e+01 3.19859300e+02 7.54677100e-03 1.07582100e-01
       21 -1    0    0  503  502 +0.0000000000e+00 +0.0000000000e+00 +4.5141569880e+02 4.5141569880e+02 0.0000000000e+00 0.0000e+00 1.0000e+00
       21 -1    0    0  501  503 -0.0000000000e+00 -0.0000000000e+00 -2.3388114890e+02 2.3388114890e+02 0.0000000000e+00 0.0000e+00 -1.0000e+00
        6  2    1    2  501    0 -2.6633924598e+02 -2.9228059500e+01 +1.7188635349e+02 3.6311829810e+02 1.7469718513e+02 0.0000e+00 0.0000e+00
       24  2    3    3    0    0 -1.4662599701e+02 -4.4691618183e+01 +1.6900203293e+02 2.4228455724e+02 8.1508256076e+01 0.0000e+00 0.0000e+00
       -6  2    1    2    0  502 +2.6633924598e+02 +2.9228059500e+01 +4.5648196410e+01 3.2217854960e+02 1.7298666589e+02 0.0000e+00 0.0000e+00
      -24  2    5    5    0    0 +1.7478409624e+02 -4.0840677861e+01 +6.1573556688e+01 2.0569816285e+02 7.9391372622e+01 0.0000e+00 0.0000e+00
        5  1    3    3  501    0 -1.1971324897e+02 +1.5463558683e+01 +2.8843205598e+00 1.2083374087e+02 4.7000000000e+00 0.0000e+00 -1.0000e+00
      -13  1    4    4    0    0 +2.2303709832e-01 -1.5755226422e+01 +4.5775753182e+01 4.8411739119e+01 0.0000000000e+00 0.0000e+00 1.0000e+00
       14  1    4    4    0    0 -1.4684903410e+02 -2.8936391761e+01 +1.2322627975e+02 1.9387281812e+02 0.0000000000e+00 0.0000e+00 -1.0000e+00
       -5  1    5    5    0  502 +9.1555149733e+01 +7.0068737362e+01 -1.5925360278e+01 1.1648038675e+02 4.7000000000e+00 0.0000e+00 1.0000e+00
       13  1    6    6    0    0 +1.4842707487e+02 -1.6743943596e+00 +5.3617526676e+01 1.5782344350e+02 0.0000000000e+00 0.0000e+00 -1.0000e+00
      -14  1    6    6    0    0 +2.6357021376e+01 -3.9166283502e+01 +7.9560300114e+00 4.7874719348e+01 0.0000000000e+00 0.0000e+00 1.0000e+00
<mgrwt>
<rscale>  2 0.31962630E+03</rscale>
<asrwt>0</asrwt>
<pdfrwt beam="1">  1       21 0.69448569E-01 0.31985931E+03</pdfrwt>
<pdfrwt beam="2">  1       21 0.35981715E-01 0.31985931E+03</pdfrwt>
<totfact> 0.13148804E+04</totfact>
</mgrwt>
</event>
<event>
12      1 +1.4674046e+01 2.01304700e+02 7.54677100e-03 1.14880300e-01
       21 -1    0    0  501  502 +0.0000000000e+00 +0.0000000000e+00 +3.8717891439e+02 3.8717891439e+02 0.0000000000e+00 0.0000e+00 -1.0000e+00
       21 -1    0    0  502  503 -0.0000000000e+00 -0.0000000000e+00 -1.0642895468e+02 1.0642895468e+02 0.0000000000e+00 0.0000e+00 -1.0000e+00
       -6  2    1    2    0  503 +7.9207316459e+01 -6.5778552970e+01 +1.7580897592e+02 2.6726837758e+02 1.7298257897e+02 0.0000e+00 0.0000e+00
      -24  2    3    3    0    0 +2.0632131503e+01 -3.1138307030e+01 +1.2233826811e+01 9.0039942112e+01 8.1007688783e+01 0.0000e+00 0.0000e+00
        6  2    1    2  501    0 -7.9207316459e+01 +6.5778552970e+01 +1.0494098379e+02 2.2633949150e+02 1.7209398107e+02 0.0000e+00 0.0000e+00
       24  2    5    5    0    0 -1.2031202614e+02 +6.1905826845e+01 +9.3423178155e+01 1.8321936844e+02 8.0833976304e+01 0.0000e+00 0.0000e+00
        5  1    5    5  501    0 +4.1104709680e+01 +3.8727261254e+00 +1.1517805630e+01 4.3120123052e+01 4.7000000000e+00 0.0000e+00 -1.0000e+00
      -13  1    6    6    0    0 -1.9508096488e+01 -1.6747774419e+01 +3.2913211039e+01 4.1765215640e+01 0.0000000000e+00 0.0000e+00 1.0000e+00
       14  1    6    6    0    0 -1.0080392965e+02 +7.8653601264e+01 +6.0509967116e+01 1.4145415280e+02 0.0000000000e+00 0.0000e+00 -1.0000e+00
       -5  1    3    3    0  503 +5.8575184956e+01 -3.4640245940e+01 +1.6357514911e+02 1.7722843547e+02 4.7000000000e+00 0.0000e+00 1.0000e+00
       13  1    4    4    0    0 -1.3945542034e+01 +1.5834392012e+01 +2.2467393146e+01 3.0821905649e+01 0.0000000000e+00 0.0000e+00 -1.0000e+00
      -14  1    4    4    0    0 +3.4577673537e+01 -4.6972699043e+01 -1.0233566335e+01 5.9218036463e+01 0.0000000000e+00 0.0000e+00 1.0000e+00
<mgrwt>
<rscale>  2 0.20111368E+03</rscale>
<asrwt>0</asrwt>
<pdfrwt beam="1">  1       21 0.59565986E-01 0.20130472E+03</pdfrwt>
<pdfrwt beam="2">  1       21 0.16373685E-01 0.20130472E+03</pdfrwt>
<totfact> 0.87645718E+04</totfact>
</mgrwt>
</event>
<event>
11      1 +1.4674046e+01 2.17871600e+02 7.54677100e-03 1.13915300e-01
       21 -1    0    0  501  502 +0.0000000000e+00 +0.0000000000e+00 +6.0312115265e+02 6.0312115265e+02 0.0000000000e+00 0.0000e+00 1.0000e+00
       21 -1    0    0  502  503 -0.0000000000e+00 -0.0000000000e+00 -1.3270165735e+02 1.3270165735e+02 0.0000000000e+00 0.0000e+00 1.0000e+00
       -6  2    1    2    0  503 +6.7053551269e+01 +1.1353094787e+02 -7.5074531889e+00 2.1800090283e+02 1.7344329598e+02 0.0000e+00 0.0000e+00
      -24  2    3    3    0    0 -5.6507583114e+00 +9.0579155594e+01 +3.9653837312e+01 1.2822908809e+02 8.1447883468e+01 0.0000e+00 0.0000e+00
       24  2    1    2    0    0 -7.5491628938e+01 -1.0149254553e+02 +4.7947009872e+02 5.0231076285e+02 8.0154875519e+01 0.0000e+00 0.0000e+00
        5  1    1    2  501    0 +8.4380776698e+00 -1.2038402339e+01 -1.5431502301e+00 1.5511144325e+01 4.7000000000e+00 0.0000e+00 -1.0000e+00
      -13  1    5    5    0    0 -2.0544845064e+01 -9.1650513870e+01 +3.0196797295e+02 3.1623814451e+02 0.0000000000e+00 0.0000e+00 1.0000e+00
       14  1    5    5    0    0 -5.4946783874e+01 -9.8420316624e+00 +1.7750212577e+02 1.8607261834e+02 0.0000000000e+00 0.0000e+00 -1.0000e+00
       -5  1    3    3    0  503 +7.2704309580e+01 +2.2951792277e+01 -4.7161290501e+01 8.9771814741e+01 4.7000000000e+00 0.0000e+00 1.0000e+00
       13  1    4    4    0    0 -1.1522965488e+01 +8.6132929664e+01 -1.0073882378e+00 8.6906128306e+01 0.0000000000e+00 0.0000e+00 -1.0000e+00
      -14  1    4    4    0    0 +5.8722071769e+00 +4.4462259304e+00 +4.0661225550e+01 4.1322959785e+01 0.0000000000e+00 0.0000e+00 1.0000e+00
<mgrwt>
<rscale>  2 0.21307571E+03</rscale>
<asrwt>0</asrwt>
<pdfrwt beam="1">  1       21 0.92787868E-01 0.21787159E+03</pdfrwt>
<pdfrwt beam="2">  1       21 0.20415640E-01 0.21787159E+03</pdfrwt>
<totfact> 0.21417779E+04</totfact>
</mgrwt>
</event>
<event>
14      3 +1.4674046e+01 2.48145400e+02 7.54677100e-03 1.11460400e-01
       -1 -1    0    0    0  501 -0.0000000000e+00 +0.0000000000e+00 +1.3634165241e+03 1.3634165241e+03 0.0000000000e+00 0.0000e+00 1.0000e+00
       21 -1    0    0  502  503 +0.0000000000e+00 -0.0000000000e+00 -4.3197166598e+02 4.3197166598e+02 0.0000000000e+00 0.0000e+00 -1.0000e+00
        6  2    1    2  502    0 -9.7754309989e+01 +1.9682217523e+02 -5.3385169299e+01 2.8459135762e+02 1.7276397411e+02 0.0000e+00 0.0000e+00
       24  2    3    3    0    0 -7.1484155687e+01 +6.8643841839e+01 -8.0129193341e+01 1.5096075118e+02 8.0910439581e+01 0.0000e+00 0.0000e+00
       -6  2    1    2    0  501 +6.7260939512e+01 -1.2692456024e+02 -7.3433208698e+01 2.3717169024e+02 1.7385078814e+02 0.0000e+00 0.0000e+00
      -24  2    5    5    0    0 +4.3825432238e+01 -7.3782713714e+00 -6.6444789055e+01 1.1505917577e+02 8.2756247715e+01 0.0000e+00 0.0000e+00
        5  1    3    3  502    0 -2.6270154302e+01 +1.2817833339e+02 +2.6744024042e+01 1.3363060645e+02 4.7000000000e+00 0.0000e+00 -1.0000e+00
      -13  1    4    4    0    0 -5.3509966329e+01 +9.3128231785e+00 -6.4897773951e+00 5.4700661630e+01 0.0000000000e+00 0.0000e+00 1.0000e+00
       14  1    4    4    0    0 -1.7974189358e+01 +5.9331018661e+01 -7.3639415946e+01 9.6260089545e+01 0.0000000000e+00 0.0000e+00 -1.0000e+00
       -5  1    5    5    0  501 +2.3435507274e+01 -1.1954628886e+02 -6.9884196428e+00 1.2211251448e+02 4.7000000000e+00 0.0000e+00 1.0000e+00
       13  1    6    6    0    0 -1.7042992469e+01 -2.2503557236e+01 -8.0266517402e+00 2.9347926992e+01 0.0000000000e+00 0.0000e+00 -1.0000e+00
      -14  1    6    6    0    0 +6.0868424707e+01 +1.5125285865e+01 -5.8418137315e+01 8.5711248773e+01 0.0000000000e+00 0.0000e+00 1.0000e+00
       21  1    1    2  504  503 +2.4344728301e+01 -6.9534152514e-01 -1.0525429151e+02 1.0803524970e+02 0.0000000000e+00 0.0000e+00 1.0000e+00
       -1  1    1    2    0  504 +6.1486421761e+00 -6.9202273466e+01 +1.1635175276e+03 1.1655898925e+03 0.0000000000e+00 0.0000e+00 1.0000e+00
<mgrwt>
<rscale>  4 0.24795517E+03</rscale>
<asrwt>0</asrwt>
<pdfrwt beam="2">  1       21 0.66457180E-01 0.24814544E+03</pdfrwt>
<pdfrwt beam="1">  1       -1 0.20975639E+00 0.24814544E+03</pdfrwt>
<totfact> 0.27340689E+01</totfact>
</mgrwt>
</event>
<event>
12      2 +1.4674046e+01 2.51633200e+02 7.54677100e-03 1.12592000e-01
       21 -1    0    0  502  503 +0.0000000000e+00 +0.0000000000e+00 +1.9270896623e+02 1.9270896623e+02 0.0000000000e+00 0.0000e+00 -1.0000e+00
        2 -1    0    0  501    0 -0.0000000000e+00 -0.0000000000e+00 -6.5586300041e+02 6.5586300041e+02 0.0000000000e+00 0.0000e+00 1.0000e+00
       24  2    1    2    0    0 +1.5452482733e+01 +9.4596612230e+01 +1.8276650859e+01 1.2457141819e+02 7.7438388387e+01 0.0000e+00 0.0000e+00
       -6  2    1    2    0  503 +3.1150788756e+01 -3.3835316509e+01 +2.1922925802e+01 1.8199507103e+02 1.7471803262e+02 0.0000e+00 0.0000e+00
      -24  2    4    4    0    0 -4.0584931914e+01 +2.1579751980e+00 -1.7547068929e+01 9.2432237493e+01 8.1142007275e+01 0.0000e+00 0.0000e+00
        5  1    1    2  501    0 -3.7035793948e+01 -8.7307914337e+01 -1.0086368182e+02 1.3852759382e+02 4.7000000000e+00 0.0000e+00 -1.0000e+00
      -13  1    3    3    0    0 +8.2064904006e+00 +8.8172194371e+01 -1.5088342812e+01 8.9829507589e+01 0.0000000000e+00 0.0000e+00 1.0000e+00
       14  1    3    3    0    0 +7.2459923322e+00 +6.4244178584e+00 +3.3364993671e+01 3.4741910604e+01 0.0000000000e+00 0.0000e+00 -1.0000e+00
       -5  1    4    4    0  503 +7.1735720670e+01 -3.5993291707e+01 +3.9469994732e+01 8.9562833542e+01 4.7000000000e+00 0.0000e+00 1.0000e+00
       13  1    5    5    0    0 -3.0278941373e+01 -9.7724994582e+00 +2.9146502478e+01 4.3148981946e+01 0.0000000000e+00 0.0000e+00 -1.0000e+00
      -14  1    5    5    0    0 -1.0305990541e+01 +1.1930474656e+01 -4.6693571407e+01 4.9283255547e+01 0.0000000000e+00 0.0000e+00 1.0000e+00
        2  1    1    2  502    0 -9.5674775410e+00 +2.6546618617e+01 -4.0248992903e+02 4.0347788360e+02 0.0000000000e+00 0.0000e+00 1.0000e+00
<mgrwt>
<rscale>  3 0.23102489E+03</rscale>
<asrwt>0</asrwt>
<pdfrwt beam="1">  1       21 0.29647533E-01 0.25163316E+03</pdfrwt>
<pdfrwt beam="2">  1        2 0.10090200E+00 0.25163316E+03</pdfrwt>
<totfact> 0.61253456E+03</totfact>
</mgrwt>
</event>
<event>
14      3 +1.4674046e+01 1.97652400e+02 7.54677100e-03 1.15186800e-01
        1 -1    0    0  502    0 -0.0000000000e+00 +0.0000000000e+00 +5.6739066151e+02 5.6739066151e+02 0.0000000000e+00 0.0000e+00 -1.0000e+00
        2 -1    0    0  501    0 +0.0000000000e+00 -0.0000000000e+00 -5.8230595699e+02 5.8230595699e+02 0.0000000000e+00 0.0000e+00 -1.0000e+00
       -6  2    1    2    0  503 -1.3661890681e+01 +9.6702902709e+01 +1.2755627763e+02 2.3568105214e+02 1.7244377555e+02 0.0000e+00 0.0000e+00
      -24  2    3    3    0    0 +1.4250678572e+01 -1.3883846835e+01 +4.2973506124e+01 9.3607564348e+01 8.0745345575e+01 0.0000e+00 0.0000e+00
        6  2    1    2  501    0 -4.1753110063e+01 -8.3651660198e+01 -2.6765448024e+02 3.3147011077e+02 1.7173407084e+02 0.0000e+00 0.0000e+00
       24  2    5    5    0    0 -9.2149172251e+01 -6.6869943874e+01 -2.1824530159e+02 2.5877385212e+02 7.9811249430e+01 0.0000e+00 0.0000e+00
        5  1    5    5  501    0 +5.0396062188e+01 -1.6781716324e+01 -4.9409178649e+01 7.2696258649e+01 4.7000000000e+00 0.0000e+00 -1.0000e+00
      -13  1    6    6    0    0 -5.4952047386e+01 +7.8268506580e+00 -8.2646796764e+01 9.9556416762e+01 0.0000000000e+00 0.0000e+00 1.0000e+00
       14  1    6    6    0    0 -3.7197124866e+01 -7.4696794532e+01 -1.3559850482e+02 1.5921743536e+02 0.0000000000e+00 0.0000e+00 -1.0000e+00
       -5  1    3    3    0  503 -2.7912569253e+01 +1.1058674954e+02 +8.4582771503e+01 1.4207348779e+02 4.7000000000e+00 0.0000e+00 1.0000e+00
       13  1    4    4    0    0 -2.2750882695e+01 -3.3353032780e+01 +2.8267378344e+01 4.9285617958e+01 0.0000000000e+00 0.0000e+00 -1.0000e+00
      -14  1    4    4    0    0 +3.7001561267e+01 +1.9469185945e+01 +1.4706127780e+01 4.4321946390e+01 0.0000000000e+00 0.0000e+00 1.0000e+00
        2  1    1    2  502    0 +2.0110199623e+01 -1.3015692731e+01 -2.2716936647e+02 2.2842887175e+02 0.0000000000e+00 0.0000e+00 -1.0000e+00
        1  1    1    2  503    0 +3.5304801121e+01 -3.5549780051e-02 +3.5235227360e+02 3.5411658385e+02 0.0000000000e+00 0.0000e+00 -1.0000e+00
<mgrwt>
<rscale>  4 0.19749747E+03</rscale>
<asrwt>0</asrwt>
<pdfrwt beam="2">  1        2 0.89585531E-01 0.19765237E+03</pdfrwt>
<pdfrwt beam="1">  1        1 0.87290872E-01 0.19765237E+03</pdfrwt>
<totfact> 0.27624396E+02</totfact>
</mgrwt>
</event>
<event>
13      2 +1.4674046e+01 2.22958100e+02 7.54677100e-03 1.13186200e-01
       21 -1    0    0  501  502 +0.0000000000e+00 +0.0000000000e+00 +9.1105349553e+02 9.1105349553e+02 0.0000000000e+00 0.0000e+00 1.0000e+00
       21 -1    0    0  504  503 -0.0000000000e+00 -0.0000000000e+00 -2.2243244254e+02 2.2243244254e+02 0.0000000000e+00 0.0000e+00 1.0000e+00
       -6  2    1    2    0  503 +1.7711940955e+01 +1.4097150571e+02 +7.9399320337e+02 8.2496120461e+02 1.7305809380e+02 0.0000e+00 0.0000e+00
      -24  2    3    3    0    0 +7.2961900898e+00 +8.9418622707e+01 +7.3841847650e+02 7.4830073318e+02 8.1505928411e+01 0.0000e+00 0.0000e+00
        6  2    1    2  501    0 +4.5207476444e+01 -1.1150941060e+02 -1.1056430515e+02 2.3885532407e+02 1.7421060727e+02 0.0000e+00 0.0000e+00
       24  2    5    5    0    0 +8.1855429736e+01 -5.1425710836e+01 -2.5219659950e+01 1.2813530817e+02 8.0235346567e+01 0.0000e+00 0.0000e+00
        5  1    5    5  501    0 -3.6647953292e+01 -6.0083699768e+01 -8.5344645198e+01 1.1072001591e+02 4.7000000000e+00 0.0000e+00 -1.0000e+00
      -13  1    6    6    0    0 +2.3534308162e+01 -2.7195897135e+01 -4.8887836174e+01 6.0691852892e+01 0.0000000000e+00 0.0000e+00 1.0000e+00
       14  1    6    6    0    0 +5.8321121574e+01 -2.4229813701e+01 +2.3668176224e+01 6.7443455275e+01 0.0000000000e+00 0.0000e+00 -1.0000e+00
       -5  1    3    3    0  503 +1.0415750866e+01 +5.1552883005e+01 +5.5574726872e+01 7.6660471425e+01 4.7000000000e+00 0.0000e+00 1.0000e+00
       13  1    4    4    0    0 +1.1237860942e+01 +3.1330714146e+01 +7.1748613203e+01 7.9093404681e+01 0.0000000000e+00 0.0000e+00 -1.0000e+00
      -14  1    4    4    0    0 -3.9416708523e+00 +5.8087908561e+01 +6.6666986330e+02 6.6920732850e+02 0.0000000000e+00 0.0000e+00 1.0000e+00
       21  1    1    2  504  502 -6.2919417399e+01 -2.9462095109e+01 +5.1921547635e+00 6.9669409392e+01 0.0000000000e+00 0.0000e+00 -1.0000e+00
<mgrwt>
<rscale>  3 0.22273287E+03</rscale>
<asrwt>0</asrwt>
<pdfrwt beam="1">  1       21 0.14016207E+00 0.22295806E+03</pdfrwt>
<pdfrwt beam="2">  1       21 0.34220376E-01 0.22295806E+03</pdfrwt>
<totfact> 0.28602873E+03</totfact>
</mgrwt>
</event>
<event>
12      1 +1.4674046e+01 1.97487900e+02 7.54677100e-03 1.15223600e-01
       21 -1    0    0  501  502 +0.0000000000e+00 +0.0000000000e+00 +1.5865872974e+02 1.5865872974e+02 0.0000000000e+00 0.0000e+00 1.0000e+00
       21 -1    0    0  502  503 -0.0000000000e+00 -0.0000000000e+00 -4.3565222179e+02 4.3565222179e+02 0.0000000000e+00 0.0000e+00 1.0000e+00
       -6  2    1    2    0  503 +9.0691914714e+01 +9.1662585009e+00 -3.3539189635e+02 3.8836957271e+02 1.7330365598e+02 0.0000e+00 0.0000e+00
      -24  2    3    3    0    0 +2.1298456550e+01 +3.1108530913e+01 -7.6655320317e+01 1.1955063526e+02 8.3635825519e+01 0.0000e+00 0.0000e+00
        6  2    1    2  501    0 -9.0691914714e+01 -9.1662585009e+00 +5.8398404305e+01 2.0594137882e+02 1.7519256319e+02 0.0000e+00 0.0000e+00
       24  2    5    5    0    0 -1.6732670160e+01 -6.5951940380e+01 +3.1902996499e+01 1.0889149394e+02 7.8803017558e+01 0.0000e+00 0.0000e+00
        5  1    5    5  501    0 -7.3959244553e+01 +5.6785681879e+01 +2.6495407805e+01 9.7049884885e+01 4.7000000000e+00 0.0000e+00 -1.0000e+00
      -13  1    6    6    0    0 -4.0327336743e+01 -5.6777133301e+01 +4.2347208956e+01 8.1505969481e+01 0.0000000000e+00 0.0000e+00 1.0000e+00
       14  1    6    6    0    0 +2.3594666582e+01 -9.1748070785e+00 -1.0444212456e+01 2.7385524459e+01 0.0000000000e+00 0.0000e+00 -1.0000e+00
       -5  1    3    3    0  503 +6.9393458164e+01 -2.1942272412e+01 -2.5873657603e+02 2.6881893745e+02 4.7000000000e+00 0.0000e+00 1.0000e+00
       13  1    4    4    0    0 -2.8508280506e+01 -4.0542082872e+00 -1.3616903515e+01 3.1852452395e+01 0.0000000000e+00 0.0000e+00 -1.0000e+00
      -14  1    4    4    0    0 +4.9806737056e+01 +3.5162739200e+01 -6.3038416802e+01 8.7698182861e+01 0.0000000000e+00 0.0000e+00 1.0000e+00
<mgrwt>
<rscale>  2 0.19706815E+03</rscale>
<asrwt>0</asrwt>
<pdfrwt beam="1">  1       21 0.24409035E-01 0.19748792E+03</pdfrwt>
<pdfrwt beam="2">  1       21 0.67023419E-01 0.19748792E+03</pdfrwt>
<totfact> 0.32232189E+04</totfact>
</mgrwt>
</event>
<event>
13      2 +1.4674046e+01 2.08590400e+02 7.54677100e-03 1.14272700e-01
       21 -1    0    0  501  502 +0.0000000000e+00 +0.0000000000e+00 +7.6280784585e+01 7.6280784585e+01 0.0000000000e+00 0.0000e+00 1.0000e+00
       21 -1    0    0  504  503 -0.0000000000e+00 -0.0000000000e+00 -9.0486939452e+02 9.0486939452e+02 0.0000000000e+00 0.0000e+00 1.0000e+00
       -6  2    1    2    0  503 +1.0180256164e+02 +1.6372717797e+01 -2.6185865357e+02 3.2994905312e+02 1.7223413065e+02 0.0000e+00 0.0000e+00
      -24  2    3    3    0    0 +8.8838545701e+01 -5.3612655952e+01 -1.6466725120e+02 2.0939086409e+02 7.7218043654e+01 0.0000e+00 0.0000e+00
        6  2    1    2  501    0 -1.2631420332e+02 +5.3856673895e-01 -5.8043502908e+02 6.1841940638e+02 1.7199468360e+02 0.0000e+00 0.0000e+00
       24  2    5    5    0    0 -1.1514765143e+02 +5.3702202845e+01 -3.3857490337e+02 3.7048902403e+02 8.0537218172e+01 0.0000e+00 0.0000e+00
        5  1    5    5  501    0 -1.1166551888e+01 -5.3163636106e+01 -2.4186012571e+02 2.4793038235e+02 4.7000000000e+00 0.0000e+00 -1.0000e+00
      -13  1    6    6    0    0 -2.3593284453e+01 +4.7863676374e+01 -1.7487105677e+02 1.8283178357e+02 0.0000000000e+00 0.0000e+00 1.0000e+00
       14  1    6    6    0    0 -9.1554366978e+01 +5.8385264707e+00 -1.6370384661e+02 1.8765724046e+02 0.0000000000e+00 0.0000e+00 -1.0000e+00
       -5  1    3    3    0  503 +1.2964015938e+01 +6.9985373750e+01 -9.7191402366e+01 1.2055818903e+02 4.7000000000e+00 0.0000e+00 1.0000e+00
       13  1    4    4    0    0 -1.8244372155e+00 -2.2939532413e+01 -5.4953329771e+00 2.3659023712e+01 0.0000000000e+00 0.0000e+00 -1.0000e+00
      -14  1    4    4    0    0 +9.0662982916e+01 -3.0673123539e+01 -1.5917191822e+02 1.8573184038e+02 0.0000000000e+00 0.0000e+00 1.0000e+00
       21  1    1    2  504  502 +2.4511641679e+01 -1.6911284536e+01 +1.3705072712e+01 3.2781719609e+01 0.0000000000e+00 0.0000e+00 1.0000e+00
<mgrwt>
<rscale>  3 0.20854093E+03</rscale>
<asrwt>0</asrwt>
<pdfrwt beam="1">  1       21 0.11735505E-01 0.20859036E+03</pdfrwt>
<pdfrwt beam="2">  1       21 0.13921068E+00 0.20859036E+03</pdfrwt>
<totfact> 0.21947061E+04</totfact>
</mgrwt>
</event>
<event>
12      1 +1.4674046e+01 2.20406700e+02 7.54677100e-03 1.13369000e-01
       21 -1    0    0  501  502 +0.0000000000e+00 +0.0000000000e+00 +1.1223433209e+03 1.1223433209e+03 0.0000000000e+00 0.0000e+00 1.0000e+00
       21 -1    0    0  502  503 -0.0000000000e+00 -0.0000000000e+00 -2.4124321827e+02 2.4124321827e+02 0.0000000000e+00 0.0000e+00 1.0000e+00
       -6  2    1    2    0  503 +1.3580307397e+02 -2.1843854009e+01 -1.7734566480e+02 2.8243597575e+02 1.7146126885e+02 0.0000e+00 0.0000e+00
      -24  2    3    3    0    0 +1.8446805937e+01 +2.6498556977e+00 -1.9416564670e+01 8.4102604554e+01 7.9680227941e+01 0.0000e+00 0.0000e+00
        6  2    1    2  501    0 -1.3580307397e+02 +2.1843854009e+01 +1.0584457675e+03 1.0811505634e+03 1.7221924786e+02 0.0000e+00 0.0000e+00
       24  2    5    5    0    0 -8.6008806521e+01 +2.5247818723e+01 +9.8521376303e+02 9.9240332394e+02 7.8633525700e+01 0.0000e+00 0.0000e+00
        5  1    5    5  501    0 -4.9794267448e+01 -3.4039647145e+00 +7.3232004423e+01 8.8747239497e+01 4.7000000000e+00 0.0000e+00 -1.0000e+00
      -13  1    6    6    0    0 +2.4535350299e+00 +2.4120311967e+01 +1.0539016016e+02 1.0814293848e+02 0.0000000000e+00 0.0000e+00 1.0000e+00
       14  1    6    6    0    0 -8.8462341550e+01 +1.1275067564e+00 +8.7982360286e+02 8.8426038546e+02 0.0000000000e+00 0.0000e+00 -1.0000e+00
       -5  1    3    3    0  503 +1.1735626803e+02 -2.4493709706e+01 -1.5792910013e+02 1.9833337120e+02 4.7000000000e+00 0.0000e+00 1.0000e+00
       13  1    4    4    0    0 +2.7287345437e+01 -3.2708267454e+01 +4.3911071675e-01 4.2598389630e+01 0.0000000000e+00 0.0000e+00 -1.0000e+00
      -14  1    4    4    0    0 -8.8405394996e+00 +3.5358123152e+01 -1.9855675386e+01 4.1504214925e+01 0.0000000000e+00 0.0000e+00 1.0000e+00
<mgrwt>
<rscale>  2 0.22025858E+03</rscale>
<asrwt>0</asrwt>
<pdfrwt beam="1">  1       21 0.17266820E+00 0.22040667E+03</pdfrwt>
<pdfrwt beam="2">  1       21 0.37114342E-01 0.22040667E+03</pdfrwt>
<totfact> 0.13923729E+03</totfact>
</mgrwt>
</event>
<event>
14      3 +1.4674046e+01 1.84981400e+02 7.54677100e-03 1.16504000e-01
        1 -1    0    0  501    0 -0.0000000000e+00 +0.0000000000e+00 +2.4596942905e+03 2.4596942905e+03 0.0000000000e+00 0.0000e+00 1.0000e+00
       21 -1    0    0  504  503 +0.0000000000e+00 -0.0000000000e+00 -1.7465635570e+02 1.7465635570e+02 0.0000000000e+00 0.0000e+00 -1.0000e+00
        6  2    1    2  501    0 +1.0385106988e+02 +2.7100473076e+01 +6.7096479352e+02 7.0333247163e+02 1.8155806551e+02 0.0000e+00 0.0000e+00
       24  2    3    3    0    0 -1.7365783441e+01 +3.3996779977e+01 +3.0091378887e+02 3.1384444791e+02 8.0572189180e+01 0.0000e+00 0.0000e+00
       -6  2    1    2    0  503 +7.5461081355e+01 -4.7258624952e+01 +1.2401592478e+02 2.3084462781e+02 1.7315178358e+02 0.0000e+00 0.0000e+00
      -24  2    5    5    0    0 +1.1103331592e+02 -5.1514201304e+01 +1.2608364288e+02 1.9465264997e+02 8.3728483550e+01 0.0000e+00 0.0000e+00
        5  1    3    3  501    0 +1.2121685332e+02 -6.8963069011e+00 +3.7005100465e+02 3.8948802372e+02 4.7000000000e+00 0.0000e+00 -1.0000e+00
      -13  1    4    4    0    0 -1.5903702523e+01 +2.1578063252e+00 +5.8778181624e+00 1.7091887796e+01 0.0000000000e+00 0.0000e+00 1.0000e+00
       14  1    4    4    0    0 -1.4620809186e+00 +3.1838973652e+01 +2.9503597071e+02 2.9675256012e+02 0.0000000000e+00 0.0000e+00 -1.0000e+00
       -5  1    5    5    0  503 -3.5572234565e+01 +4.2555763522e+00 -2.0677180988e+00 3.6191977843e+01 4.7000000000e+00 0.0000e+00 1.0000e+00
       13  1    6    6    0    0 +7.3893959510e+01 +7.3000482918e+00 +4.1231043272e+01 8.4932955244e+01 0.0000000000e+00 0.0000e+00 -1.0000e+00
      -14  1    6    6    0    0 +3.7139356410e+01 -5.8814249596e+01 +8.4852599611e+01 1.0971969473e+02 0.0000000000e+00 0.0000e+00 1.0000e+00
       21  1    1    2  504  502 -1.2658226228e+02 +7.6028634273e+01 -5.1740930202e+01 1.5646260324e+02 0.0000000000e+00 0.0000e+00 -1.0000e+00
        1  1    1    2  502    0 -5.2729888955e+01 -5.5870482396e+01 +1.5417981467e+03 1.5437109435e+03 0.0000000000e+00 0.0000e+00 1.0000e+00
<mgrwt>
<rscale>  4 0.18288514E+03</rscale>
<asrwt>0</asrwt>
<pdfrwt beam="2">  1       21 0.26870210E-01 0.18498135E+03</pdfrwt>
<pdfrwt beam="1">  1        1 0.37841448E+00 0.18498135E+03</pdfrwt>
<totfact> 0.25818208E+02</totfact>
</mgrwt>
</event>
<event>
13      2 +1.4674046e+01 3.22163300e+02 7.54677100e-03 1.07474300e-01
       21 -1    0    0  504  502 +0.0000000000e+00 +0.0000000000e+00 +1.5928326496e+03 1.5928326496e+03 0.0000000000e+00 0.0000e+00 1.0000e+00
       21 -1    0    0  501  503 -0.0000000000e+00 -0.0000000000e+00 -2.1610289558e+02 2.1610289558e+02 0.0000000000e+00 0.0000e+00 1.0000e+00
        6  2    1    2  501    0 -2.5023744865e+02 -1.8861648570e+02 +3.3420187735e+02 4.9068043850e+02 1.7573115408e+02 0.0000e+00 0.0000e+00
       24  2    3    3    0    0 -1.5276915172e+02 -7.4617695694e+01 +1.0154309754e+02 2.1382670301e+02 8.0651373419e+01 0.0000e+00 0.0000e+00
       -6  2    1    2    0  502 +1.0279155613e+02 +2.4182861978e+02 +5.7162563032e+01 3.2049931303e+02 1.7437048399e+02 0.0000e+00 0.0000e+00
      -24  2    5    5    0    0 +1.3482104386e+02 +2.3091605964e+02 +6.1419438875e+01 2.8607282549e+02 8.1033163244e+01 0.0000e+00 0.0000e+00
        5  1    3    3  501    0 -9.7468296928e+01 -1.1399879000e+02 +2.3265877981e+02 2.7685373549e+02 4.7000000000e+00 0.0000e+00 -1.0000e+00
      -13  1    4    4    0    0 -1.4591892501e+01 +2.4032719568e+00 -1.2048268853e+01 1.9075110098e+01 0.0000000000e+00 0.0000e+00 1.0000e+00
       14  1    4    4    0    0 -1.3817725922e+02 -7.7020967651e+01 +1.1359136639e+02 1.9475159292e+02 0.0000000000e+00 0.0000e+00 -1.0000e+00
       -5  1    5    5    0  502 -3.2029487724e+01 +1.0912560140e+01 -4.2568758432e+00 3.4426487544e+01 4.7000000000e+00 0.0000e+00 1.0000e+00
       13  1    6    6    0    0 +8.1552027812e+01 +1.5234655723e+02 +7.8206967418e+01 1.8967481776e+02 0.0000000000e+00 0.0000e+00 -1.0000e+00
      -14  1    6    6    0    0 +5.3269016046e+01 +7.8569502412e+01 -1.6787528542e+01 9.6398007730e+01 0.0000000000e+00 0.0000e+00 1.0000e+00
       21  1    1    2  504  503 +1.4744589252e+02 -5.3212134079e+01 +9.8536531368e+02 9.9775579368e+02 0.0000000000e+00 0.0000e+00 1.0000e+00
<mgrwt>
<rscale>  3 0.32197811E+03</rscale>
<asrwt>0</asrwt>
<pdfrwt beam="1">  1       21 0.24505117E+00 0.32216332E+03</pdfrwt>
<pdfrwt beam="2">  1       21 0.33246600E-01 0.32216332E+03</pdfrwt>
<totfact> 0.54514057E+02</totfact>
</mgrwt>
</event>
<event>
13      2 +1.4674046e+01 1.94519000e+02 7.54677100e-03 1.15454300e-01
       21 -1    0    0  504  502 +0.0000000000e+00 +0.0000000000e+00 +4.1972131754e+02 4.1972131754e+02 0.0000000000e+00 0.0000e+00 1.0000e+00
       21 -1    0    0  501  503 -0.0000000000e+00 -0.0000000000e+00 -4.8175813578e+02 4.8175813578e+02 0.0000000000e+00 0.0000e+00 -1.0000e+00
        6  2    1    2  501    0 -4.5324862113e+01 -8.0381438355e+01 -1.7828362506e+01 1.9628677399e+02 1.7232274480e+02 0.0000e+00 0.0000e+00
       24  2    3    3    0    0 -7.4856763940e+01 -8.4537746457e+01 -5.4154889737e+01 1.4905209707e+02 8.0830748329e+01 0.0000e+00 0.0000e+00
       -6  2    1    2    0  502 +2.2812185128e+01 +8.6125770423e+01 -3.4900647185e+02 3.9951041193e+02 1.7281495226e+02 0.0000e+00 0.0000e+00
      -24  2    5    5    0    0 +5.0456282718e-01 +1.9022539022e+01 -3.0456972255e+02 3.1586121369e+02 8.1507538589e+01 0.0000e+00 0.0000e+00
        5  1    3    3  501    0 +2.9531901827e+01 +4.1563081021e+00 +3.6326527231e+01 4.7234676914e+01 4.7000000000e+00 0.0000e+00 -1.0000e+00
      -13  1    4    4    0    0 -1.7069397556e+01 -7.5803383004e+01 -4.5297534523e+01 8.9941002005e+01 0.0000000000e+00 0.0000e+00 1.0000e+00
       14  1    4    4    0    0 -5.7787366385e+01 -8.7343634526e+00 -8.8573552144e+00 5.9111095067e+01 0.0000000000e+00 0.0000e+00 -1.0000e+00
       -5  1    5    5    0  502 +2.2307622301e+01 +6.7103231401e+01 -4.4436749303e+01 8.3649198238e+01 4.7000000000e+00 0.0000e+00 1.0000e+00
       13  1    6    6    0    0 +3.6492376304e+01 +2.7811537966e+01 -1.4693727613e+02 1.5393420116e+02 0.0000000000e+00 0.0000e+00 -1.0000e+00
      -14  1    6    6    0    0 -3.5987813476e+01 -8.7889989445e+00 -1.5763244642e+02 1.6192701253e+02 0.0000000000e+00 0.0000e+00 1.0000e+00
       21  1    1    2  504  503 +2.2512676985e+01 -5.7443320683e+00 +3.0479801612e+02 3.0568226741e+02 0.0000000000e+00 0.0000e+00 1.0000e+00
<mgrwt>
<rscale>  3 0.19440957E+03</rscale>
<asrwt>0</asrwt>
<pdfrwt beam="1">  1       21 0.64572511E-01 0.19451895E+03</pdfrwt>
<pdfrwt beam="2">  1       21 0.74116636E-01 0.19451895E+03</pdfrwt>
<totfact> 0.36040464E+03</totfact>
</mgrwt>
</event>
<event>
12      1 +1.4674046e+01 2.36383300e+02 7.54677100e-03 1.12314100e-01
       21 -1    0    0  503  502 +0.0000000000e+00 +0.0000000000e+00 +9.8643809231e+01 9.8643809231e+01 0.0000000000e+00 0.0000e+00 1.0000e+00
       21 -1    0    0  501  503 -0.0000000000e+00 -0.0000000000e+00 -6.1865851263e+02 6.1865851263e+02 0.0000000000e+00 0.0000e+00 1.0000e+00
        6  2    1    2  501    0 +7.5838589746e+01 +1.3813215907e+02 -3.7880829690e+02 4.4651182446e+02 1.7619619324e+02 0.0000e+00 0.0000e+00
       24  2    3    3    0    0 +5.4729004494e+01 +8.8118701591e+00 -1.1647124200e+02 1.5323350598e+02 8.2716649793e+01 0.0000e+00 0.0000e+00
       -6  2    1    2    0  502 -7.5838589746e+01 -1.3813215907e+02 -1.4120640650e+02 2.7079049741e+02 1.6898597333e+02 0.0000e+00 0.0000e+00
      -24  2    5    5    0    0 -7.1999922764e+01 -3.4009563991e+01 -2.9538233408e+01 1.1798957773e+02 8.1904785573e+01 0.0000e+00 0.0000e+00
        5  1    3    3  501    0 +2.1109585253e+01 +1.2932028892e+02 -2.6233705490e+02 2.9327831848e+02 4.7000000000e+00 0.0000e+00 -1.0000e+00
      -13  1    4    4    0    0 +7.4599307347e+01 +1.5075535445e+01 -1.0426409515e+02 1.2908652123e+02 0.0000000000e+00 0.0000e+00 1.0000e+00
       14  1    4    4    0    0 -1.9870302854e+01 -6.2636652861e+00 -1.2207146854e+01 2.4146984753e+01 0.0000000000e+00 0.0000e+00 -1.0000e+00
       -5  1    5    5    0  502 -3.8386669816e+00 -1.0412259508e+02 -1.1166817309e+02 1.5280091967e+02 4.7000000000e+00 0.0000e+00 1.0000e+00
       13  1    6    6    0    0 -4.2553427643e+01 -5.9838994330e+00 +2.5193378225e+01 4.9812724910e+01 0.0000000000e+00 0.0000e+00 -1.0000e+00
      -14  1    6    6    0    0 -2.9446495121e+01 -2.8025664558e+01 -5.4731611633e+01 6.8176852823e+01 0.0000000000e+00 0.0000e+00 1.0000e+00
<mgrwt>
<rscale>  2 0.23504085E+03</rscale>
<asrwt>0</asrwt>
<pdfrwt beam="1">  1       21 0.15175970E-01 0.23638334E+03</pdfrwt>
<pdfrwt beam="2">  1       21 0.95178234E-01 0.23638334E+03</pdfrwt>
<totfact> 0.34625588E+04</totfact>
</mgrwt>
</event>
<event>
13      2 +1.4674046e+01 2.19246000e+02 7.54677100e-03 1.13494600e-01
       21 -1    0    0  502  503 +0.0000000000e+00 +0.0000000000e+00 +3.6593322488e+02 3.6593322488e+02 0.0000000000e+00 0.0000e+00 1.0000e+00
       -4 -1    0    0    0  501 -0.0000000000e+00 -0.0000000000e+00 -4.9348886835e+02 4.9348886835e+02 0.0000000000e+00 0.0000e+00 -1.0000e+00
        6  2    1    2  502    0 -8.4951853907e+01 -9.7065725832e+01 +2.8586471032e+02 3.5956281778e+02 1.7586419394e+02 0.0000e+00 0.0000e+00
       24  2    3    3    0    0 -1.0040276782e+02 -1.2387397092e+02 +2.7499789113e+02 3.2643291430e+02 7.4223520252e+01 0.0000e+00 0.0000e+00
       -6  2    1    2    0  501 +7.8790397109e+01 +1.2643790195e+02 -2.7015819991e+02 3.5348737576e+02 1.7254970912e+02 0.0000e+00 0.0000e+00
      -24  2    5    5    0    0 +2.7415305170e+01 +1.2730371915e+01 -1.7846554384e+02 1.9857309096e+02 8.1655745595e+01 0.0000e+00 0.0000e+00
        5  1    3    3  502    0 +1.5450913910e+01 +2.6808245086e+01 +1.0866819196e+01 3.3129903482e+01 4.7000000000e+00 0.0000e+00 -1.0000e+00
      -13  1    4    4    0    0 -4.8344482723e+01 -6.1393819662e+01 +6.6406595940e+01 1.0254865229e+02 0.0000000000e+00 0.0000e+00 1.0000e+00
       14  1    4    4    0    0 -5.2058285094e+01 -6.2480151256e+01 +2.0859129519e+02 2.2388426201e+02 0.0000000000e+00 0.0000e+00 -1.0000e+00
       -5  1    5    5    0  501 +5.1375091940e+01 +1.1370753004e+02 -9.1692656067e+01 1.5491428480e+02 4.7000000000e+00 0.0000e+00 1.0000e+00
       13  1    6    6    0    0 -2.3546204186e+01 -1.0136191064e+01 -9.3040046640e+01 9.6507079428e+01 0.0000000000e+00 0.0000e+00 -1.0000e+00
      -14  1    6    6    0    0 +5.0961509356e+01 +2.2866562978e+01 -8.5425497199e+01 1.0206601153e+02 0.0000000000e+00 0.0000e+00 1.0000e+00
       -4  1    1    2    0  503 +6.1614567974e+00 -2.9372176119e+01 -1.4326215389e+02 1.4637189969e+02 0.0000000000e+00 0.0000e+00 -1.0000e+00
<mgrwt>
<rscale>  3 0.21858062E+03</rscale>
<asrwt>0</asrwt>
<pdfrwt beam="1">  1       21 0.56297419E-01 0.21924605E+03</pdfrwt>
<pdfrwt beam="2">  1       -4 0.75921364E-01 0.21924605E+03</pdfrwt>
<totfact> 0.19831003E+02</totfact>
</mgrwt>
</event>
<event>
14      3 +1.4674046e+01 2.27802300e+02 7.54677100e-03 1.12960000e-01
       21 -1    0    0  501  502 +0.0000000000e+00 +0.0000000000e+00 +2.5706599448e+02 2.5706599448e+02 0.0000000000e+00 0.0000e+00 -1.0000e+00
       21 -1    0    0  505  503 -0.0000000000e+00 -0.0000000000e+00 -1.6758158175e+03 1.6758158175e+03 0.0000000000e+00 0.0000e+00 -1.0000e+00
       -6  2    1    2    0  504 +1.5335631736e+02 -1.0501533755e+02 -1.4811017744e+02 2.9742112072e+02 1.7881923050e+02 0.0000e+00 0.0000e+00
      -24  2    3    3    0    0 +1.1286850436e+02 -1.3267733203e+02 -6.7165577428e+01 2.0266581897e+02 7.8864730235e+01 0.0000e+00 0.0000e+00
        6  2    1    2  501    0 -4.8024725047e+01 +1.2625788993e+02 +1.1379976742e+02 2.4435713463e+02 1.6885672387e+02 0.0000e+00 0.0000e+00
       24  2    5    5    0    0 +2.7219955043e+01 +8.8411144137e+01 +3.1482580714e+01 1.2649133266e+02 8.0320906297e+01 0.0000e+00 0.0000e+00
        5  1    5    5  501    0 -7.5244680090e+01 +3.7846745789e+01 +8.2317186701e+01 1.1786580197e+02 4.7000000000e+00 0.0000e+00 -1.0000e+00
      -13  1    6    6    0    0 +2.9153684512e+01 -9.1335779979e-01 -5.6963707595e+00 2.9719020558e+01 0.0000000000e+00 0.0000e+00 1.0000e+00
       14  1    6    6    0    0 -1.9337294700e+00 +8.9324501936e+01 +3.7178951474e+01 9.6772312097e+01 0.0000000000e+00 0.0000e+00 -1.0000e+00
       -5  1    3    3    0  504 +4.0487812995e+01 +2.7661994481e+01 -8.0944600011e+01 9.4755301755e+01 4.7000000000e+00 0.0000e+00 1.0000e+00
       13  1    4    4    0    0 +2.0898483999e+01 -2.1949560462e+01 -4.8954946100e+01 5.7577049122e+01 0.0000000000e+00 0.0000e+00 -1.0000e+00
      -14  1    4    4    0    0 +9.1970020362e+01 -1.1072777157e+02 -1.8210631328e+01 1.4508876985e+02 0.0000000000e+00 0.0000e+00 1.0000e+00
       21  1    1    2  504  503 -8.5575114095e+01 +8.8442470965e+00 -6.3512726694e+02 6.4092742652e+02 0.0000000000e+00 0.0000e+00 -1.0000e+00
       21  1    1    2  505  502 -1.9756478215e+01 -3.0086799471e+01 -7.4931214605e+02 7.5017613009e+02 0.0000000000e+00 0.0000e+00 -1.0000e+00
<mgrwt>
<rscale>  4 0.22584377E+03</rscale>
<asrwt>0</asrwt>
<pdfrwt beam="1">  1       21 0.39548615E-01 0.22780232E+03</pdfrwt>
<pdfrwt beam="2">  1       21 0.25781782E+00 0.22780232E+03</pdfrwt>
<totfact> 0.35245465E+02</totfact>
</mgrwt>
</event>
<event>
12      2 +1.4674046e+01 2.84840100e+02 7.54677100e-03 1.09321800e-01
       21 -1    0    0  502  503 +0.0000000000e+00 +0.0000000000e+00 +2.3213246419e+02 2.3213246419e+02 0.0000000000e+00 0.0000e+00 -1.0000e+00
       -4 -1    0    0    0  501 -0.0000000000e+00 -0.0000000000e+00 -6.9256284281e+02 6.9256284281e+02 0.0000000000e+00 0.0000e+00 1.0000e+00
       -6  2    1    2    0  501 +1.2172061897e+02 +2.0016850973e+02 -3.5978401751e+01 2.9304965699e+02 1.7233779244e+02 0.0000e+00 0.0000e+00
        6  2    1    2  502    0 -3.6857893872e+01 -2.2050685939e+02 -1.0777186824e+02 3.0316182731e+02 1.7409922049e+02 0.0000e+00 0.0000e+00
       24  2    4    4    0    0 -9.7485576628e+00 -2.2055940606e+02 -1.2947838672e+02 2.6811640228e+02 7.9876570831e+01 0.0000e+00 0.0000e+00
        5  1    4    4  502    0 -2.7109336209e+01 +5.2546674312e-02 +2.1706518478e+01 3.5045425027e+01 4.7000000000e+00 0.0000e+00 -1.0000e+00
      -13  1    5    5    0    0 +2.8223010382e+00 -1.8513416670e+02 -7.0388708614e+01 1.9808380894e+02 0.0000000000e+00 0.0000e+00 1.0000e+00
       14  1    5    5    0    0 -1.2570858701e+01 -3.5425239362e+01 -5.9089678105e+01 7.0032593346e+01 0.0000000000e+00 0.0000e+00 -1.0000e+00
       -5  1    3    3    0  501 +3.0648185947e+01 +3.8976868757e+00 -3.1225529779e+01 4.4177222353e+01 4.7000000000e+00 0.0000e+00 1.0000e+00
       13  1    3    3    0    0 +3.7265755198e+01 +2.3929182018e+01 -4.5809783633e+01 6.3717176169e+01 0.0000000000e+00 0.0000e+00 -1.0000e+00
      -14  1    3    3    0    0 +5.3806677823e+01 +1.7234164084e+02 +4.1056911660e+01 1.8515525847e+02 0.0000000000e+00 0.0000e+00 1.0000e+00
       -4  1    1    2    0  503 -8.4862725097e+01 +2.0338349658e+01 -3.1668010863e+02 3.2848382270e+02 0.0000000000e+00 0.0000e+00 1.0000e+00
<mgrwt>
<rscale>  3 0.28457139E+03</rscale>
<asrwt>0</asrwt>
<pdfrwt beam="1">  1       21 0.35712687E-01 0.28484007E+03</pdfrwt>
<pdfrwt beam="2">  1       -4 0.10654813E+00 0.28484007E+03</pdfrwt>
<totfact> 0.23132217E+02</totfact>
</mgrwt>
</event>
<event>
14      3 +1.4674046e+01 3.02844100e+02 7.54677100e-03 1.08393100e-01
        1 -1    0    0  504    0 -0.0000000000e+00 +0.0000000000e+00 +5.4783753161e+02 5.4783753161e+02 0.0000000000e+00 0.0000e+00 1.0000e+00
       21 -1    0    0  501  503 +0.0000000000e+00 -0.0000000000e+00 -1.4194869163e+03 1.4194869163e+03 0.0000000000e+00 0.0000e+00 -1.0000e+00
       -6  2    1    2    0  502 +1.5200165143e+02 -1.2903555492e+02 -3.7260270707e+02 4.5728944331e+02 1.7471743237e+02 0.0000e+00 0.0000e+00
      -24  2    3    3    0    0 +3.4217235567e+01 -3.0628881547e+01 -2.3071200180e+02 2.4821504453e+02 7.9206899698e+01 0.0000e+00 0.0000e+00
        6  2    1    2  501    0 -2.2656522228e+02 +1.8355431270e+02 -8.7787091723e+02 9.4111698182e+02 1.7326234587e+02 0.0000e+00 0.0000e+00
       24  2    5    5    0    0 -7.3561912757e+01 +6.5360598390e+01 -2.0158825824e+02 2.3772513393e+02 7.8689583882e+01 0.0000e+00 0.0000e+00
        5  1    5    5  501    0 -1.5300330952e+02 +1.1819371431e+02 -6.7628265899e+02 7.0339184789e+02 4.7000000000e+00 0.0000e+00 -1.0000e+00
      -13  1    6    6    0    0 -7.0665173684e+01 +5.9562063000e+01 -2.0861235427e+02 2.2816730807e+02 0.0000000000e+00 0.0000e+00 1.0000e+00
       14  1    6    6    0    0 -2.8967390726e+00 +5.7985353898e+00 +7.0240960331e+00 9.5578258513e+00 0.0000000000e+00 0.0000e+00 -1.0000e+00
       -5  1    3    3    0  502 +1.1778441586e+02 -9.8406673374e+01 -1.4189070527e+02 2.0907439878e+02 4.7000000000e+00 0.0000e+00 1.0000e+00
       13  1    4    4    0    0 -1.6854497573e+01 -3.6317843829e+01 -1.0766599716e+02 1.1486960788e+02 0.0000000000e+00 0.0000e+00 -1.0000e+00
      -14  1    4    4    0    0 +5.1071733140e+01 +5.6889622827e+00 -1.2304600464e+02 1.3334543665e+02 0.0000000000e+00 0.0000e+00 1.0000e+00
       21  1    1    2  504  503 +1.2299902424e+01 -2.5014298434e+01 -9.0431929024e+01 9.4630526327e+01 0.0000000000e+00 0.0000e+00 1.0000e+00
        1  1    1    2  502    0 +6.2263668425e+01 -2.9504459346e+01 +4.6925616861e+02 4.7428749647e+02 0.0000000000e+00 0.0000e+00 1.0000e+00
<mgrwt>
<rscale>  4 0.30263459E+03</rscale>
<asrwt>0</asrwt>
<pdfrwt beam="2">  1       21 0.21838260E+00 0.30284409E+03</pdfrwt>
<pdfrwt beam="1">  1        1 0.84282698E-01 0.30284409E+03</pdfrwt>
<totfact> 0.41287854E+01</totfact>
</mgrwt>
</event>
<event>
12      1 +1.4674046e+01 2.68807900e+02 7.54677100e-03 1.10247700e-01
       21 -1    0    0  503  502 +0.0000000000e+00 +0.0000000000e+00 +8.3356337648e+02 8.3356337648e+02 0.0000000000e+00 0.0000e+00 1.0000e+00
       21 -1    0    0  501  503 -0.0000000000e+00 -0.0000000000e+00 -8.9867814939e+01 8.9867814939e+01 0.0000000000e+00 0.0000e+00 1.0000e+00
        6  2    1    2  501    0 -1.8603229091e+02 +8.7236166927e+01 +2.6825866652e+02 3.7726459983e+02 1.6777277503e+02 0.0000e+00 0.0000e+00
       24  2    3    3    0    0 -4.4364044976e+01 -8.7094655900e+00 +9.9727517891e+01 1.3705574412e+02 8.2429824052e+01 0.0000e+00 0.0000e+00
       -6  2    1    2    0  502 +1.8603229091e+02 -8.7236166927e+01 +4.7543689503e+02 5.4616659159e+02 1.7331919263e+02 0.0000e+00 0.0000e+00
      -24  2    5    5    0    0 +1.8373742932e+02 -7.1430748813e+01 +4.8287429312e+02 5.2793248832e+02 8.1751663353e+01 0.0000e+00 0.0000e+00
        5  1    3    3  501    0 -1.4166824594e+02 +9.5945632517e+01 +1.6853114862e+02 2.4020885571e+02 4.7000000000e+00 0.0000e+00 -1.0000e+00
      -13  1    4    4    0    0 -9.7584563405e+00 -8.5794611999e+00 -1.3452697120e+01 1.8703199845e+01 0.0000000000e+00 0.0000e+00 1.0000e+00
       14  1    4    4    0    0 -3.4605588636e+01 -1.3000439008e-01 +1.1318021501e+02 1.1835254427e+02 0.0000000000e+00 0.0000e+00 -1.0000e+00
       -5  1    5    5    0  502 +2.2948615905e+00 -1.5805418115e+01 -7.4373980944e+00 1.8234103266e+01 4.7000000000e+00 0.0000e+00 1.0000e+00
       13  1    6    6    0    0 +5.3033953137e+01 -2.3507822609e+01 +2.4980849796e+02 2.5645565613e+02 0.0000000000e+00 0.0000e+00 -1.0000e+00
      -14  1    6    6    0    0 +1.3070347619e+02 -4.7922926204e+01 +2.3306579516e+02 2.7147683219e+02 0.0000000000e+00 0.0000e+00 1.0000e+00
<mgrwt>
<rscale>  2 0.26791795E+03</rscale>
<asrwt>0</asrwt>
<pdfrwt beam="1">  1       21 0.12824051E+00 0.26880793E+03</pdfrwt>
<pdfrwt beam="2">  1       21 0.13825818E-01 0.26880793E+03</pdfrwt>
<totfact> 0.19487038E+04</totfact>
</mgrwt>
</event>
<event>
13      2 +1.4674046e+01 2.06484200e+02 7.54677100e-03 1.14454700e-01
       21 -1    0    0  503  502 +0.0000000000e+00 +0.0000000000e+00 +1.0979948468e+02 1.0979948468e+02 0.0000000000e+00 0.0000e+00 -1.0000e+00
       21 -1    0    0  504  503 -0.0000000000e+00 -0.0000000000e+00 -1.0618222850e+03 1.0618222850e+03 0.0000000000e+00 0.0000e+00 -1.0000e+00
        6  2    1    2  501    0 +1.5360632554e+02 +5.6614245047e+01 -3.1582702170e+02 3.9615903121e+02 1.7434217614e+02 0.0000e+00 0.0000e+00
       24  2    3    3    0    0 +4.4992368580e+01 +8.2675855203e+01 -1.9703146192e+02 2.3303124634e+02 8.1379079142e+01 0.0000e+00 0.0000e+00
       -6  2    1    2    0  502 -5.7791814621e+01 -7.4891199634e+01 -8.3834698107e+01 2.1455523200e+02 1.7336985133e+02 0.0000e+00 0.0000e+00
      -24  2    5    5    0    0 -8.8278903022e+00 -5.4038170370e+01 +1.8731704932e+01 9.8908045492e+01 8.0211403113e+01 0.0000e+00 0.0000e+00
        5  1    3    3  501    0 +1.0861395696e+02 -2.6061610156e+01 -1.1879555979e+02 1.6312778487e+02 4.7000000000e+00 0.0000e+00 -1.0000e+00
      -13  1    4    4    0    0 +5.1774319842e+01 +1.4085287640e+01 -6.6759930934e+01 8.5649657917e+01 0.0000000000e+00 0.0000e+00 1.0000e+00
       14  1    4    4    0    0 -6.7819512623e+00 +6.8590567563e+01 -1.3027153098e+02 1.4738158842e+02 0.0000000000e+00 0.0000e+00 -1.0000e+00
       -5  1    5    5    0  502 -4.8963924319e+01 -2.0853029265e+01 -1.0256640304e+02 1.1564718650e+02 4.7000000000e+00 0.0000e+00 1.0000e+00
       13  1    6    6    0    0 -4.1336466738e+01 -4.0133567337e+01 -2.4949751931e+00 5.7668289473e+01 0.0000000000e+00 0.0000e+00 -1.0000e+00
      -14  1    6    6    0    0 +3.2508576436e+01 -1.3904603033e+01 +2.1226680125e+01 4.1239756019e+01 0.0000000000e+00 0.0000e+00 1.0000e+00
       21  1    1    2  504  501 -9.5814510916e+01 +1.8276954587e+01 -5.5236108051e+02 5.6090750649e+02 0.0000000000e+00 0.0000e+00 -1.0000e+00
<mgrwt>
<rscale>  3 0.20627886E+03</rscale>
<asrwt>0</asrwt>
<pdfrwt beam="1">  1       21 0.16892228E-01 0.20648424E+03</pdfrwt>
<pdfrwt beam="2">  1       21 0.16335728E+00 0.20648424E+03</pdfrwt>
<totfact> 0.74272536E+03</totfact>
</mgrwt>
</event>
<event>
14      3 +1.4674046e+01 3.04677300e+02 7.54677100e-03 1.08305900e-01
       21 -1    0    0  505  502 +0.0000000000e+00 +0.0000000000e+00 +1.2756720613e+03 1.2756720613e+03 0.0000000000e+00 0.0000e+00 -1.0000e+00
       21 -1    0    0  502  503 -0.0000000000e+00 -0.0000000000e+00 -1.1096093192e+02 1.1096093192e+02 0.0000000000e+00 0.0000e+00 1.0000e+00
       -6  2    1    2    0  503 -1.8550152805e+01 -2.4200043887e+02 +3.1861630629e+02 4.3729858937e+02 1.7551462914e+02 0.0000e+00 0.0000e+00
      -24  2    3    3    0    0 -5.7866117065e+01 -1.0352894198e+02 +2.2379571349e+02 2.6486560146e+02 7.7476035846e+01 0.0000e+00 0.0000e+00
        6  2    1    2  501    0 -4.6542815290e+01 +2.5955183736e+02 +6.2976750053e+02 7.0447368614e+02 1.7361647331e+02 0.0000e+00 0.0000e+00
       24  2    5    5    0    0 -5.8856539763e+00 +4.8050029663e+01 +2.5785110390e+02 2.7467150431e+02 8.1325255738e+01 0.0000e+00 0.0000e+00
        5  1    5    5  501    0 -4.0657161314e+01 +2.1150180770e+02 +3.7191639663e+02 4.2980218183e+02 4.7000000000e+00 0.0000e+00 -1.0000e+00
      -13  1    6    6    0    0 -1.8637704679e+01 -4.3469888528e+00 +1.1158092579e+01 2.2153179858e+01 0.0000000000e+00 0.0000e+00 1.0000e+00
       14  1    6    6    0    0 +1.2752050703e+01 +5.2397018516e+01 +2.4669301132e+02 2.5251832445e+02 0.0000000000e+00 0.0000e+00 -1.0000e+00
       -5  1    3    3    0  503 +3.9315964260e+01 -1.3847149690e+02 +9.4820592805e+01 1.7243298791e+02 4.7000000000e+00 0.0000e+00 1.0000e+00
       13  1    4    4    0    0 -1.9566002152e+01 -7.5512338365e+01 +1.9333041710e+02 2.0847443935e+02 0.0000000000e+00 0.0000e+00 -1.0000e+00
      -14  1    4    4    0    0 -3.8300114913e+01 -2.8016603611e+01 +3.0465296386e+01 5.6391162110e+01 0.0000000000e+00 0.0000e+00 1.0000e+00
       21  1    1    2  504  501 +6.1903313846e+01 +2.2573785933e+00 +5.6696304104e+01 8.3973727572e+01 0.0000000000e+00 0.0000e+00 -1.0000e+00
       21  1    1    2  505  504 +3.1896542488e+00 -1.9808777084e+01 +1.5963101845e+02 1.6088699013e+02 0.0000000000e+00 0.0000e+00 -1.0000e+00
<mgrwt>
<rscale>  4 0.30440452E+03</rscale>
<asrwt>0</asrwt>
<pdfrwt beam="1">  1       21 0.19625723E+00 0.30467726E+03</pdfrwt>
<pdfrwt beam="2">  1       21 0.17070914E-01 0.30467726E+03</pdfrwt>
<totfact> 0.40383381E+03</totfact>
</mgrwt>
</event>
<event>
12      1 +1.4674046e+01 2.30931900e+02 7.54677100e-03 1.12598600e-01
       -1 -1    0    0    0  501 -0.0000000000e+00 +0.0000000000e+00 +3.9952148155e+02 3.9952148155e+02 0.0000000000e+00 0.0000e+00 -1.0000e+00
        1 -1    0    0  502    0 +0.0000000000e+00 -0.0000000000e+00 -1.7996955351e+02 1.7996955351e+02 0.0000000000e+00 0.0000e+00 1.0000e+00
        6  2    1    2  502    0 +8.9958289346e+01 -1.2356491191e+02 +2.5698216087e+02 3.4540110948e+02 1.7291996456e+02 0.0000e+00 0.0000e+00
       24  2    3    3    0    0 +1.2313628168e+02 -6.5497876719e+01 +1.9330454587e+02 2.5293766587e+02 8.4606735188e+01 0.0000e+00 0.0000e+00
       -6  2    1    2    0  501 -8.9958289346e+01 +1.2356491191e+02 -3.7430232829e+01 2.3408992559e+02 1.7330980830e+02 0.0000e+00 0.0000e+00
      -24  2    5    5    0    0 -6.6182103304e+01 +1.1917099666e+02 +3.1992745584e+01 1.6042681782e+02 7.8303453712e+01 0.0000e+00 0.0000e+00
        5  1    3    3  502    0 -3.3177992336e+01 -5.8067035193e+01 +6.3677615001e+01 9.2463443607e+01 4.7000000000e+00 0.0000e+00 -1.0000e+00
      -13  1    4    4    0    0 +7.7806942692e+01 -5.1119156670e+01 +5.8404149330e+01 1.0990056037e+02 0.0000000000e+00 0.0000e+00 1.0000e+00
       14  1    4    4    0    0 +4.5329338990e+01 -1.4378720049e+01 +1.3490039654e+02 1.4303710550e+02 0.0000000000e+00 0.0000e+00 -1.0000e+00
       -5  1    5    5    0  501 -2.3776186042e+01 +4.3939152511e+00 -6.9422978413e+01 7.3663107765e+01 4.7000000000e+00 0.0000e+00 1.0000e+00
       13  1    6    6    0    0 -3.4988691447e+01 +5.0906000354e+01 +5.4176512619e+01 8.2162789149e+01 0.0000000000e+00 0.0000e+00 -1.0000e+00
      -14  1    6    6    0    0 -3.1193411858e+01 +6.8264996307e+01 -2.2183767035e+01 7.8264028672e+01 0.0000000000e+00 0.0000e+00 1.0000e+00
<mgrwt>
<rscale>  2 0.23093190E+03</rscale>
<asrwt>0</asrwt>
<pdfrwt beam="2">  1        1 0.27687624E-01 0.23093190E+03</pdfrwt>
<pdfrwt beam="1">  1       -1 0.61464843E-01 0.23093190E+03</pdfrwt>
<totfact> 0.46760962E+02</totfact>
</mgrwt>
</event>
<event>
12      1 +1.4674046e+01 2.50286500e+02 7.54677100e-03 1.11317400e-01
       21 -1    0    0  501  502 +0.0000000000e+00 +0.0000000000e+00 +1.1819477302e+02 1.1819477302e+02 0.0000000000e+00 0.0000e+00 1.0000e+00
       21 -1    0    0  502  503 -0.0000000000e+00 -0.0000000000e+00 -5.6695041989e+02 5.6695041989e+02 0.0000000000e+00 0.0000e+00 1.0000e+00
       -6  2    1    2    0  503 +1.7579659206e+02 +3.5708300938e+01 -3.1275586183e+02 4.0057402795e+02 1.7453881581e+02 0.0000e+00 0.0000e+00
      -24  2    3    3    0    0 +1.9876095340e+02 +9.7680228420e+00 -2.7456502562e+02 3.4879671738e+02 8.1681490546e+01 0.0000e+00 0.0000e+00
        6  2    1    2  501    0 -1.7579659206e+02 -3.5708300938e+01 -1.3599978505e+02 2.8457116496e+02 1.7408412293e+02 0.0000e+00 0.0000e+00
       24  2    5    5    0    0 -1.0055545342e+02 -8.8508406053e+01 -9.3980258632e+01 1.8339403985e+02 8.2800650279e+01 0.0000e+00 0.0000e+00
        5  1    5    5  501    0 -7.5241138640e+01 +5.2800105114e+01 -4.2019526416e+01 1.0117712510e+02 4.7000000000e+00 0.0000e+00 -1.0000e+00
      -13  1    6    6    0    0 -1.0151989153e+02 -9.6343043279e+01 -1.0118710818e+02 1.7270524377e+02 0.0000000000e+00 0.0000e+00 1.0000e+00
       14  1    6    6    0    0 +9.6443810763e-01 +7.8346372264e+00 +7.2068495464e+00 1.0688796084e+01 0.0000000000e+00 0.0000e+00 -1.0000e+00
       -5  1    3    3    0  503 -2.2964361335e+01 +2.5940278096e+01 -3.8190836210e+01 5.1777310568e+01 4.7000000000e+00 0.0000e+00 1.0000e+00
       13  1    4    4    0    0 +7.6030927058e+01 -2.4345072067e+01 -6.2392131453e+01 1.0132207297e+02 0.0000000000e+00 0.0000e+00 -1.0000e+00
      -14  1    4    4    0    0 +1.2273002634e+02 +3.4113094909e+01 -2.1217289416e+02 2.4747464441e+02 0.0000000000e+00 0.0000e+00 1.0000e+00
<mgrwt>
<rscale>  2 0.25020723E+03</rscale>
<asrwt>0</asrwt>
<pdfrwt beam="1">  1       21 0.18183812E-01 0.25028648E+03</pdfrwt>
<pdfrwt beam="2">  1       21 0.87223140E-01 0.25028648E+03</pdfrwt>
<totfact> 0.30212601E+04</totfact>
</mgrwt>
</event>
<event>
12      1 +1.4674046e+01 2.10850700e+02 7.54677100e-03 1.14100300e-01
       21 -1    0    0  501  502 +0.0000000000e+00 +0.0000000000e+00 +7.2406139568e+02 7.2406139568e+02 0.0000000000e+00 0.0000e+00 -1.0000e+00
       21 -1    0    0  502  503 -0.0000000000e+00 -0.0000000000e+00 -7.3039530878e+01 7.3039530878e+01 0.0000000000e+00 0.0000e+00 -1.0000e+00
       -6  2    1    2    0  503 -1.0064701394e+02 -6.5829688433e+01 +1.6496930448e+02 2.6728482199e+02 1.7251937675e+02 0.0000e+00 0.0000e+00
      -24  2    3    3    0    0 -3.4929412527e+01 -7.9941910032e+01 +1.6304371544e+02 1.9987743496e+02 7.5874653345e+01 0.0000e+00 0.0000e+00
        6  2    1    2  501    0 +1.0064701394e+02 +6.5829688433e+01 +4.8605256032e+02 5.2981610457e+02 1.7318961854e+02 0.0000e+00 0.0000e+00
       24  2    5    5    0    0 +6.8773314086e+01 -3.1296475970e+00 +1.4723939754e+02 1.8255860351e+02 8.3118229664e+01 0.0000e+00 0.0000e+00
        5  1    5    5  501    0 +3.1873699853e+01 +6.8959336030e+01 +3.3881316278e+02 3.4725750106e+02 4.7000000000e+00 0.0000e+00 -1.0000e+00
      -13  1    6    6    0    0 -1.4060762285e+01 +4.0797464820e+00 +1.4330982969e+00 1.4710647100e+01 0.0000000000e+00 0.0000e+00 1.0000e+00
       14  1    6    6    0    0 +8.2834076371e+01 -7.2093940790e+00 +1.4580629925e+02 1.6784795641e+02 0.0000000000e+00 0.0000e+00 -1.0000e+00
       -5  1    3    3    0  503 -6.5717601412e+01 +1.4112221599e+01 +1.9255890375e+00 6.7407387035e+01 4.7000000000e+00 0.0000e+00 1.0000e+00
       13  1    4    4    0    0 -2.1978308471e+01 -1.9760010280e+01 +4.6203878725e+00 2.9914077515e+01 0.0000000000e+00 0.0000e+00 -1.0000e+00
      -14  1    4    4    0    0 -1.2951104056e+01 -6.0181899753e+01 +1.5842332757e+02 1.6996335744e+02 0.0000000000e+00 0.0000e+00 1.0000e+00
<mgrwt>
<rscale>  2 0.21071301E+03</rscale>
<asrwt>0</asrwt>
<pdfrwt beam="1">  1       21 0.11139406E+00 0.21085069E+03</pdfrwt>
<pdfrwt beam="2">  1       21 0.11236851E-01 0.21085069E+03</pdfrwt>
<totfact> 0.41391767E+04</totfact>
</mgrwt>
</event>
<event>
14      3 +1.4674046e+01 2.46424800e+02 7.54677100e-03 1.11559100e-01
       21 -1    0    0  505  502 +0.0000000000e+00 +0.0000000000e+00 +4.2451330666e+02 4.2451330666e+02 0.0000000000e+00 0.0000e+00 -1.0000e+00
       21 -1    0    0  502  503 -0.0000000000e+00 -0.0000000000e+00 -2.8821001954e+02 2.8821001954e+02 0.0000000000e+00 0.0000e+00 -1.0000e+00
        6  2    1    2  501    0 +1.3647936668e+02 -9.8724045967e+01 -1.1579723086e+01 2.4222472028e+02 1.7368267141e+02 0.0000e+00 0.0000e+00
       24  2    3    3    0    0 +3.6895979913e+01 -3.1315203973e+01 +5.0868204684e+01 1.0664213813e+02 8.0268400037e+01 0.0000e+00 0.0000e+00
       -6  2    1    2    0  504 -1.6871013699e+02 +7.9533292587e+01 +1.0589173037e+01 2.5511287702e+02 1.7372908358e+02 0.0000e+00 0.0000e+00
      -24  2    5    5    0    0 -1.6527500658e+02 +1.0899308473e+02 -1.6852614474e+01 2.1443338371e+02 8.0637119963e+01 0.0000e+00 0.0000e+00
        5  1    3    3  501    0 +9.9583386766e+01 -6.7408841994e+01 -6.2447927771e+01 1.3558258215e+02 4.7000000000e+00 0.0000e+00 -1.0000e+00
      -13  1    4    4    0    0 +5.5304040512e+01 -1.0007127873e+01 +5.4455168584e+01 7.8256277005e+01 0.0000000000e+00 0.0000e+00 1.0000e+00
       14  1    4    4    0    0 -1.8408060598e+01 -2.1308076100e+01 -3.5869638998e+00 2.8385861130e+01 0.0000000000e+00 0.0000e+00 -1.0000e+00
       -5  1    5    5    0  504 -3.4351304030e+00 -2.9459792139e+01 +2.7441787511e+01 4.0679493305e+01 4.7000000000e+00 0.0000e+00 1.0000e+00
       13  1    6    6    0    0 -3.7935218119e+01 +7.0853408229e+01 -1.3259050468e+01 8.1456053494e+01 0.0000000000e+00 0.0000e+00 -1.0000e+00
      -14  1    6    6    0    0 -1.2733978847e+02 +3.8139676497e+01 -3.5935640067e+00 1.3297733022e+02 0.0000000000e+00 0.0000e+00 1.0000e+00
       21  1    1    2  504  503 -4.6277797214e+00 +2.1837698893e+01 -3.3712030399e+01 4.0432690137e+01 0.0000000000e+00 0.0000e+00 -1.0000e+00
       21  1    1    2  505  501 +3.6858550029e+01 -2.6469455134e+00 +1.7100586756e+02 1.7495303876e+02 0.0000000000e+00 0.0000e+00 1.0000e+00
<mgrwt>
<rscale>  4 0.24641663E+03</rscale>
<asrwt>0</asrwt>
<pdfrwt beam="1">  1       21 0.65309740E-01 0.24642481E+03</pdfrwt>
<pdfrwt beam="2">  1       21 0.44340003E-01 0.24642481E+03</pdfrwt>
<totfact> 0.10187020E+04</totfact>
</mgrwt>
</event>
<event>
12      1 +1.4674046e+01 2.03558900e+02 7.54677100e-03 1.15167500e-01
       21 -1    0    0  501  502 +0.0000000000e+00 +0.0000000000e+00 +5.3745483402e+01 5.3745483402e+01 0.0000000000e+00 0.0000e+00 -1.0000e+00
       21 -1    0    0  502  503 -0.0000000000e+00 -0.0000000000e+00 -7.7447526779e+02 7.7447526779e+02 0.0000000000e+00 0.0000e+00 -1.0000e+00
        6  2    1    2  501    0 +5.3663985088e+01 -1.9756926472e+01 -4.7942450959e+02 5.1252397513e+02 1.7193837632e+02 0.0000e+00 0.0000e+00
       24  2    3    3    0    0 +6.8885417383e+01 -6.4029739744e+01 -4.1028829302e+02 4.2889574761e+02 8.2280438943e+01 0.0000e+00 0.0000e+00
       -6  2    1    2    0  503 -5.3663985088e+01 +1.9756926472e+01 -2.4130527480e+02 3.1569677606e+02 1.9536135577e+02 0.0000e+00 0.0000e+00
      -24  2    5    5    0    0 -7.6311231035e+01 -3.6187794903e+01 -7.2252840055e+01 1.3613195408e+02 7.8603279479e+01 0.0000e+00 0.0000e+00
        5  1    3    3  501    0 -1.5221432295e+01 +4.4272813272e+01 -6.9136216569e+01 8.3628227517e+01 4.7000000000e+00 0.0000e+00 -1.0000e+00
      -13  1    4    4    0    0 +9.3191001152e+00 -1.4132332623e+01 -7.2163650201e+00 1.8402292695e+01 0.0000000000e+00 0.0000e+00 1.0000e+00
       14  1    4    4    0    0 +5.9566317268e+01 -4.9897407121e+01 -4.0307192800e+02 4.1049345492e+02 0.0000000000e+00 0.0000e+00 -1.0000e+00
       -5  1    5    5    0  503 +2.2647245947e+01 +5.5944721374e+01 -1.6905243474e+02 1.7956482197e+02 4.7000000000e+00 0.0000e+00 1.0000e+00
       13  1    6    6    0    0 -5.8946427833e+01 -1.9875679965e+01 -2.3180096876e+00 6.2250278532e+01 0.0000000000e+00 0.0000e+00 -1.0000e+00
      -14  1    6    6    0    0 -1.7364803201e+01 -1.6312114938e+01 -6.9934830367e+01 7.3881675552e+01 0.0000000000e+00 0.0000e+00 1.0000e+00
<mgrwt>
<rscale>  2 0.19772260E+03</rscale>
<asrwt>0</asrwt>
<pdfrwt beam="1">  1       21 0.82685362E-02 0.20355888E+03</pdfrwt>
<pdfrwt beam="2">  1       21 0.11915004E+00 0.20355888E+03</pdfrwt>
<totfact> 0.60556912E+04</totfact>
</mgrwt>
</event>
<event>
14      3 +1.4674046e+01 2.72595100e+02 7.54677100e-03 1.11341400e-01
        2 -1    0    0  501    0 -0.0000000000e+00 +0.0000000000e+00 +1.8403254594e+03 1.8403254594e+03 0.0000000000e+00 0.0000e+00 1.0000e+00
       21 -1    0    0  502  503 +0.0000000000e+00 -0.0000000000e+00 -1.9235258729e+02 1.9235258729e+02 0.0000000000e+00 0.0000e+00 -1.0000e+00
        6  2    1    2  501    0 -9.7564732254e+01 -2.0295218941e+02 -4.9120816137e+01 2.8799962916e+02 1.7269181697e+02 0.0000e+00 0.0000e+00
       24  2    3    3    0    0 -2.9468921848e+01 -1.4165618252e+02 +2.7999338946e+01 1.6815035642e+02 8.0967203124e+01 0.0000e+00 0.0000e+00
       -6  2    1    2    0  503 +8.1321519318e+01 -7.3282946827e+00 +8.8397638848e+02 9.0465373507e+02 1.7411844125e+02 0.0000e+00 0.0000e+00
      -24  2    5    5    0    0 +7.3696384489e+01 -5.6839988458e+01 +5.6153553185e+02 5.7513712456e+02 8.2453727269e+01 0.0000e+00 0.0000e+00
        5  1    3    3  501    0 -6.8095810405e+01 -6.1296006895e+01 -7.7120155083e+01 1.1984927274e+02 4.7000000000e+00 0.0000e+00 -1.0000e+00
      -13  1    4    4    0    0 +1.2501661719e+01 -1.0759405658e+01 -1.6829270501e+01 2.3564394782e+01 0.0000000000e+00 0.0000e+00 1.0000e+00
       14  1    4    4    0    0 -4.1970583568e+01 -1.3089677686e+02 +4.4828609447e+01 1.4458596164e+02 0.0000000000e+00 0.0000e+00 -1.0000e+00
       -5  1    5    5    0  504 +2.1983920999e+01 +3.5266745829e+01 +1.4452159071e+02 1.5045137529e+02 4.7000000000e+00 0.0000e+00 1.0000e+00
       13  1    6    6    0    0 -5.1254587437e+00 +1.5978407172e+01 +6.4256669408e+01 6.6411590754e+01 0.0000000000e+00 0.0000e+00 -1.0000e+00
      -14  1    6    6    0    0 +7.8821843233e+01 -7.2818395630e+01 +4.9727886244e+02 5.0872553381e+02 0.0000000000e+00 0.0000e+00 1.0000e+00
       21  1    5    5  504  503 -1.4358786171e+01 +1.4244947946e+01 +1.7791926591e+02 1.7906523522e+02 0.0000000000e+00 0.0000e+00 1.0000e+00
        2  1    1    2  502    0 +1.6243212936e+01 +2.1028048410e+02 +8.1311729975e+02 8.4002468244e+02 0.0000000000e+00 0.0000e+00 1.0000e+00
<mgrwt>
<rscale>  4 0.24982764E+03</rscale>
<asrwt>0</asrwt>
<pdfrwt beam="2">  1       21 0.29592707E-01 0.27259508E+03</pdfrwt>
<pdfrwt beam="1">  1        2 0.28312698E+00 0.27259508E+03</pdfrwt>
<totfact> 0.12195764E+03</totfact>
</mgrwt>
</event>
<event>
12      1 +1.4674046e+01 1.88360500e+02 7.54677100e-03 1.16026900e-01
       21 -1    0    0  501  502 +0.0000000000e+00 +0.0000000000e+00 +5.6206955225e+02 5.6206955225e+02 0.0000000000e+00 0.0000e+00 1.0000e+00
       21 -1    0    0  502  503 -0.0000000000e+00 -0.0000000000e+00 -1.7448434614e+02 1.7448434614e+02 0.0000000000e+00 0.0000e+00 1.0000e+00
       -6  2    1    2    0  503 +2.5500101438e+01 -2.0226318503e+01 -1.0077907385e+02 2.1362606744e+02 1.8552712964e+02 0.0000e+00 0.0000e+00
      -24  2    3    3    0    0 +8.2014248678e+01 -6.8120782661e+00 -1.0601308980e+02 1.5511730227e+02 7.7780851482e+01 0.0000e+00 0.0000e+00
        6  2    1    2  501    0 -2.5500101438e+01 +2.0226318503e+01 +4.8836427996e+02 5.2292783095e+02 1.8410455536e+02 0.0000e+00 0.0000e+00
       24  2    5    5    0    0 +2.2545835113e+01 +7.4405131753e+01 +2.4137007345e+02 2.6549437572e+02 7.8634043940e+01 0.0000e+00 0.0000e+00
        5  1    5    5  501    0 -4.8045936552e+01 -5.4178813250e+01 +2.4699420651e+02 2.5743345523e+02 4.7000000000e+00 0.0000e+00 -1.0000e+00
      -13  1    6    6    0    0 +1.4446399472e+01 +8.5062178681e+01 +2.3563029114e+02 2.5093008350e+02 0.0000000000e+00 0.0000e+00 1.0000e+00
       14  1    6    6    0    0 +8.0994356410e+00 -1.0657046928e+01 +5.7397823114e+00 1.4564292221e+01 0.0000000000e+00 0.0000e+00 -1.0000e+00
       -5  1    3    3    0  503 -5.6514147239e+01 -1.3414240237e+01 +5.2340159519e+00 5.8508765175e+01 4.7000000000e+00 0.0000e+00 1.0000e+00
       13  1    4    4    0    0 +7.0592075060e+01 +1.0892306308e+01 -3.2188949017e+01 7.8345464685e+01 0.0000000000e+00 0.0000e+00 -1.0000e+00
      -14  1    4    4    0    0 +1.1422173618e+01 -1.7704384574e+01 -7.3824140784e+01 7.6771837582e+01 0.0000000000e+00 0.0000e+00 1.0000e+00
<mgrwt>
<rscale>  2 0.18800926E+03</rscale>
<asrwt>0</asrwt>
<pdfrwt beam="1">  1       21 0.86472238E-01 0.18836049E+03</pdfrwt>
<pdfrwt beam="2">  1       21 0.26843746E-01 0.18836049E+03</pdfrwt>
<totfact> 0.15267059E+04</totfact>
</mgrwt>
</event>
<event>
14      3 +1.4674046e+01 3.35709300e+02 7.54677100e-03 1.06866200e-01
       21 -1    0    0  505  502 +0.0000000000e+00 +0.0000000000e+00 +1.1099489060e+03 1.1099489060e+03 0.0000000000e+00 0.0000e+00 -1.0000e+00
       21 -1    0    0  504  503 -0.0000000000e+00 -0.0000000000e+00 -3.2487133328e+02 3.2487133328e+02 0.0000000000e+00 0.0000e+00 1.0000e+00
        6  2    1    2  501    0 -2.6175215251e+02 +9.7092613922e+00 +2.8427744390e+02 4.2336271635e+02 1.7266692037e+02 0.0000e+00 0.0000e+00
       24  2    3    3    0    0 -4.9808648532e+01 +3.5908890298e+01 +9.7395412394e+01 1.3954331404e+02 7.8842376081e+01 0.0000e+00 0.0000e+00
       -6  2    1    2    0  502 +2.7567449725e+02 -1.9940738367e+02 +7.2825276340e+01 3.8861891869e+02 1.7309364514e+02 0.0000e+00 0.0000e+00
      -24  2    5    5    0    0 +1.0940557008e+02 -6.6666145477e+01 -2.2820299253e+01 1.5530419864e+02 8.4762458315e+01 0.0000e+00 0.0000e+00
        5  1    3    3  501    0 -2.1194350398e+02 -2.6199628906e+01 +1.8688203150e+02 2.8381940232e+02 4.7000000000e+00 0.0000e+00 -1.0000e+00
      -13  1    4    4    0    0 +2.0425333389e+01 +1.0922294545e+01 +3.6769240685e+01 4.3456504953e+01 0.0000000000e+00 0.0000e+00 1.0000e+00
       14  1    4    4    0    0 -7.0233981921e+01 +2.4986595754e+01 +6.0626171709e+01 9.6086809084e+01 0.0000000000e+00 0.0000e+00 -1.0000e+00
       -5  1    5    5    0  502 +1.6626892718e+02 -1.3274123819e+02 +9.5645575593e+01 2.3331472005e+02 4.7000000000e+00 0.0000e+00 1.0000e+00
       13  1    6    6    0    0 -1.2022163490e+01 -1.2296601121e+01 -1.3629195391e+01 2.1942966553e+01 0.0000000000e+00 0.0000e+00 -1.0000e+00
      -14  1    6    6    0    0 +1.2142773357e+02 -5.4369544355e+01 -9.1911038626e+00 1.3336123209e+02 0.0000000000e+00 0.0000e+00 1.0000e+00
       21  1    1    2  504  501 -9.3884687780e+00 +7.7705200490e+01 -7.4473938455e+01 1.0803984931e+02 0.0000000000e+00 0.0000e+00 1.0000e+00
       21  1    1    2  505  503 -4.5338759665e+00 +1.1199292179e+02 +5.0244879098e+02 5.1479875497e+02 0.0000000000e+00 0.0000e+00 -1.0000e+00
<mgrwt>
<rscale>  4 0.33565436E+03</rscale>
<asrwt>0</asrwt>
<pdfrwt beam="1">  1       21 0.17076137E+00 0.33570933E+03</pdfrwt>
<pdfrwt beam="2">  1       21 0.49980206E-01 0.33570933E+03</pdfrwt>
<totfact> 0.71293938E+02</totfact>
</mgrwt>
</event>
<event>
12      1 +1.4674046e+01 2.10205100e+02 7.54677100e-03 1.14154900e-01
       21 -1    0    0  501  502 +0.0000000000e+00 +0.0000000000e+00 +1.0827891886e+02 1.0827891886e+02 0.0000000000e+00 0.0000e+00 -1.0000e+00
       21 -1    0    0  502  503 -0.0000000000e+00 -0.0000000000e+00 -4.8611433892e+02 4.8611433892e+02 0.0000000000e+00 0.0000e+00 1.0000e+00
       -6  2    1    2    0  503 -8.0990925986e+01 -8.5612231349e+01 -3.0935275927e+02 3.7401246987e+02 1.7406094824e+02 0.0000e+00 0.0000e+00
      -24  2    3    3    0    0 +1.6743365269e+01 +2.1632903886e+01 -1.0270132664e+02 1.2146462228e+02 5.8802798908e+01 0.0000e+00 0.0000e+00
        6  2    1    2  501    0 +8.0990925986e+01 +8.5612231349e+01 -6.8482660795e+01 2.2038078791e+02 1.7317284025e+02 0.0000e+00 0.0000e+00
       24  2    5    5    0    0 +7.1311522789e+01 +1.2646517886e+02 -4.0969706207e+01 1.6996544464e+02 7.8300452084e+01 0.0000e+00 0.0000e+00
        5  1    5    5  501    0 +9.6794031972e+00 -4.0852947514e+01 -2.7512954588e+01 5.0415343269e+01 4.7000000000e+00 0.0000e+00 -1.0000e+00
      -13  1    6    6    0    0 +5.3711082315e+00 -9.2983088394e+00 +5.4718667383e+00 1.2051915885e+01 0.0000000000e+00 0.0000e+00 1.0000e+00
       14  1    6    6    0    0 +6.5940414558e+01 +1.3576348770e+02 -4.6441572945e+01 1.5791352875e+02 0.0000000000e+00 0.0000e+00 -1.0000e+00
       -5  1    3    3    0  503 -9.7734291255e+01 -1.0724513523e+02 -2.0665143263e+02 2.5254784760e+02 4.7000000000e+00 0.0000e+00 1.0000e+00
       13  1    4    4    0    0 -1.4681469938e+01 -3.2681992911e+00 -4.9900176481e+00 1.5846985905e+01 0.0000000000e+00 0.0000e+00 -1.0000e+00
      -14  1    4    4    0    0 +3.1424835207e+01 +2.4901103177e+01 -9.7711308994e+01 1.0561763637e+02 0.0000000000e+00 0.0000e+00 1.0000e+00
<mgrwt>
<rscale>  2 0.21002119E+03</rscale>
<asrwt>0</asrwt>
<pdfrwt beam="1">  1       21 0.16658295E-01 0.21020513E+03</pdfrwt>
<pdfrwt beam="2">  1       21 0.74786821E-01 0.21020513E+03</pdfrwt>
<totfact> 0.51372571E+04</totfact>
</mgrwt>
</event>
<event>
14      3 +1.4674046e+01 2.27505700e+02 7.54677100e-03 1.12865700e-01
       21 -1    0    0  504  503 +0.0000000000e+00 +0.0000000000e+00 +8.2563234324e+01 8.2563234324e+01 0.0000000000e+00 0.0000e+00 1.0000e+00
        1 -1    0    0  501    0 -0.0000000000e+00 -0.0000000000e+00 -2.0312371012e+03 2.0312371012e+03 0.0000000000e+00 0.0000e+00 -1.0000e+00
        6  2    1    2  501    0 -1.0290443656e+02 +1.5965887068e+02 -5.2297758606e+02 5.8211269010e+02 1.7108287584e+02 0.0000e+00 0.0000e+00
       24  2    3    3    0    0 -7.5727315996e+01 +1.0496623928e+02 -1.9034081302e+02 2.4388319318e+02 8.0603033665e+01 0.0000e+00 0.0000e+00
       -6  2    1    2    0  503 -1.3486341313e+01 -1.1746259475e+02 -3.0332038441e+02 3.6862504634e+02 1.7292144639e+02 0.0000e+00 0.0000e+00
      -24  2    5    5    0    0 +2.8932592958e+01 -1.2229655578e+02 -1.6169406684e+02 2.2062897547e+02 8.2089165387e+01 0.0000e+00 0.0000e+00
        5  1    3    3  501    0 -2.7177120562e+01 +5.4692631397e+01 -3.3263677304e+02 3.3822949692e+02 4.7000000000e+00 0.0000e+00 -1.0000e+00
      -13  1    4    4    0    0 -1.4639490741e+01 +7.1256427760e+01 -1.4024856954e+02 1.5799194424e+02 0.0000000000e+00 0.0000e+00 1.0000e+00
       14  1    4    4    0    0 -6.1087825255e+01 +3.3709811524e+01 -5.0092243481e+01 8.5891248939e+01 0.0000000000e+00 0.0000e+00 -1.0000e+00
       -5  1    5    5    0  503 -4.2418934271e+01 +4.8339610292e+00 -1.4162631757e+02 1.4799607087e+02 4.7000000000e+00 0.0000e+00 1.0000e+00
       13  1    6    6    0    0 -1.0327410357e+00 -8.8549548933e+01 -5.3653570725e+01 1.0354127110e+02 0.0000000000e+00 0.0000e+00 -1.0000e+00
      -14  1    6    6    0    0 +2.9965333994e+01 -3.3747006848e+01 -1.0804049612e+02 1.1708770437e+02 0.0000000000e+00 0.0000e+00 1.0000e+00
       21  1    1    2  504  502 +4.3829217016e+01 -8.3140944583e+01 -9.9766917173e+01 1.3706514762e+02 0.0000000000e+00 0.0000e+00 1.0000e+00
        1  1    1    2  502    0 +7.2561560854e+01 +4.0944668654e+01 -1.0226089793e+03 1.0259974515e+03 0.0000000000e+00 0.0000e+00 -1.0000e+00
<mgrwt>
<rscale>  4 0.22715628E+03</rscale>
<asrwt>0</asrwt>
<pdfrwt beam="1">  1       21 0.12702036E-01 0.22750566E+03</pdfrwt>
<pdfrwt beam="2">  1        1 0.31249802E+00 0.22750566E+03</pdfrwt>
<totfact> 0.19173175E+03</totfact>
</mgrwt>
</event>
<event>
12      2 +1.4674046e+01 8.14347100e+02 7.54677100e-03 9.95420900e-02
       21 -1    0    0  501  502 +0.0000000000e+00 +0.0000000000e+00 +3.8280942077e+02 3.8280942077e+02 0.0000000000e+00 0.0000e+00 1.0000e+00
       21 -1    0    0  504  503 -0.0000000000e+00 -0.0000000000e+00 -1.5031943491e+03 1.5031943491e+03 0.0000000000e+00 0.0000e+00 -1.0000e+00
      -24  2    1    2    0    0 +1.8349637700e+02 +2.4642721135e+02 -7.2388640622e+02 7.9051280693e+02 8.0632982921e+01 0.0000e+00 0.0000e+00
        6  2    1    2  501    0 -1.0266326627e+02 +4.2563144283e+01 +1.4509186986e+02 2.5072717259e+02 1.7164235165e+02 0.0000e+00 0.0000e+00
       24  2    4    4    0    0 -7.9554945815e+01 +5.9003547462e+01 +1.6998929319e+02 2.1269753915e+02 8.0829916155e+01 0.0000e+00 0.0000e+00
        5  1    4    4  501    0 -2.3108320459e+01 -1.6440403179e+01 -2.4897423326e+01 3.8029633438e+01 4.7000000000e+00 0.0000e+00 -1.0000e+00
      -13  1    5    5    0    0 -3.9841626517e+01 -7.7198210225e+00 +2.3484220112e+01 4.6887732238e+01 0.0000000000e+00 0.0000e+00 1.0000e+00
       14  1    5    5    0    0 -3.9713319298e+01 +6.6723368485e+01 +1.4650507307e+02 1.6580980691e+02 0.0000000000e+00 0.0000e+00 -1.0000e+00
       -5  1    1    2    0  503 -5.4029044724e+01 -2.9638082947e+02 +1.1575720764e+00 3.0130410506e+02 4.7000000000e+00 0.0000e+00 1.0000e+00
       13  1    3    3    0    0 +1.2443025760e+02 +1.0092574243e+02 -3.8532942793e+02 4.1731003166e+02 0.0000000000e+00 0.0000e+00 -1.0000e+00
      -14  1    3    3    0    0 +5.9066119400e+01 +1.4550146892e+02 -3.3855697829e+02 3.7320277527e+02 0.0000000000e+00 0.0000e+00 1.0000e+00
       21  1    1    2  504  502 -2.6804066007e+01 +7.3904738439e+00 -5.4274796402e+02 5.4345968526e+02 0.0000000000e+00 0.0000e+00 -1.0000e+00
<mgrwt>
<rscale>  3 0.57704497E+03</rscale>
<asrwt>0</asrwt>
<pdfrwt beam="1">  1       21 0.58893757E-01 0.81434706E+03</pdfrwt>
<pdfrwt beam="2">  1       21 0.23126067E+00 0.81434706E+03</pdfrwt>
<totfact> 0.16009877E+02</totfact>
</mgrwt>
</event>
<event>
13      3 +1.4674046e+01 6.28272600e+02 7.54677100e-03 1.02374100e-01
        1 -1    0    0  501    0 -0.0000000000e+00 +0.0000000000e+00 +3.0288186691e+03 3.0288186691e+03 0.0000000000e+00 0.0000e+00 -1.0000e+00
        2 -1    0    0  503    0 +0.0000000000e+00 -0.0000000000e+00 -1.3659724122e+03 1.3659724122e+03 0.0000000000e+00 0.0000e+00 -1.0000e+00
       24  2    1    2    0    0 -1.1422541364e+02 -2.7962459048e+02 +1.8103008249e+02 3.6088648793e+02 7.8929143441e+01 0.0000e+00 0.0000e+00
       -6  2    1    2    0  502 -7.8748385705e+01 +4.7612915723e+01 +7.5637193887e+02 7.8082711638e+02 1.7065807267e+02 0.0000e+00 0.0000e+00
      -24  2    4    4    0    0 +2.0994400426e+01 +1.1049309999e+01 +3.9027852540e+02 3.9960277556e+02 8.2475443280e+01 0.0000e+00 0.0000e+00
        5  1    1    2  501    0 +1.7790866354e+02 +2.5051545355e+02 +6.9895490541e+01 3.1514592593e+02 4.7000000000e+00 0.0000e+00 -1.0000e+00
      -13  1    3    3    0    0 -8.9068421176e+01 -1.3222856219e+02 +6.7436351156e+01 1.7310470175e+02 0.0000000000e+00 0.0000e+00 1.0000e+00
       14  1    3    3    0    0 -2.5156992467e+01 -1.4739602829e+02 +1.1359373133e+02 1.8778178619e+02 0.0000000000e+00 0.0000e+00 -1.0000e+00
       -5  1    4    4    0  502 -9.9742786131e+01 +3.6563605724e+01 +3.6609341346e+02 3.8122434082e+02 4.7000000000e+00 0.0000e+00 1.0000e+00
       13  1    5    5    0    0 -1.9607613003e+01 -2.3822059912e+01 +1.0925269657e+02 1.1352577124e+02 0.0000000000e+00 0.0000e+00 -1.0000e+00
      -14  1    5    5    0    0 +4.0602013430e+01 +3.4871369911e+01 +2.8102582883e+02 2.8607700433e+02 0.0000000000e+00 0.0000e+00 1.0000e+00
        2  1    1    2  502    0 -1.8528579943e+01 -1.7464535715e+01 -1.1408921684e+03 1.1411762608e+03 0.0000000000e+00 0.0000e+00 -1.0000e+00
        1  1    1    2  503    0 +3.3593715749e+01 -1.0392430774e+00 +1.7964409134e+03 1.7967552902e+03 0.0000000000e+00 0.0000e+00 -1.0000e+00
<mgrwt>
<rscale>  4 0.46360501E+03</rscale>
<asrwt>0</asrwt>
<pdfrwt beam="2">  1        2 0.21014960E+00 0.62827259E+03</pdfrwt>
<pdfrwt beam="1">  1        1 0.46597210E+00 0.62827259E+03</pdfrwt>
<totfact> 0.12885730E+00</totfact>
</mgrwt>
</event>
<event>
13      2 +1.4674046e+01 4.24623900e+02 7.54677100e-03 1.03557200e-01
       -1 -1    0    0    0  501 -0.0000000000e+00 +0.0000000000e+00 +1.0503128368e+03 1.0503128368e+03 0.0000000000e+00 0.0000e+00 1.0000e+00
        1 -1    0    0  502    0 +0.0000000000e+00 -0.0000000000e+00 -2.0838254971e+02 2.0838254971e+02 0.0000000000e+00 0.0000e+00 -1.0000e+00
        6  2    1    2  502    0 +2.1300586744e+02 +3.2978583674e+02 +2.6784100133e+02 5.0580452842e+02 1.7311620752e+02 0.0000e+00 0.0000e+00
       24  2    3    3    0    0 +1.7863409844e+02 +1.8651207743e+02 +1.1700061252e+02 2.9489293200e+02 8.1091318031e+01 0.0000e+00 0.0000e+00
       -6  2    1    2    0  503 -1.8954601043e+02 -3.3240368250e+02 +4.0775001876e+02 5.8488499583e+02 1.7149484640e+02 0.0000e+00 0.0000e+00
      -24  2    5    5    0    0 -2.2708003124e+01 -1.3793168494e+02 +1.7718094596e+02 2.4015544118e+02 8.2102041399e+01 0.0000e+00 0.0000e+00
        5  1    3    3  502    0 +3.4371768999e+01 +1.4327375931e+02 +1.5084038881e+02 2.1091159643e+02 4.7000000000e+00 0.0000e+00 -1.0000e+00
      -13  1    4    4    0    0 +5.5399443316e+01 +1.7476180388e+01 +4.5614268662e+01 7.3859168058e+01 0.0000000000e+00 0.0000e+00 1.0000e+00
       14  1    4    4    0    0 +1.2323465512e+02 +1.6903589704e+02 +7.1386343856e+01 2.2103376394e+02 0.0000000000e+00 0.0000e+00 -1.0000e+00
       -5  1    5    5    0  503 -1.6683800730e+02 -1.9447199756e+02 +2.3056907280e+02 3.4472955465e+02 4.7000000000e+00 0.0000e+00 1.0000e+00
       13  1    6    6    0    0 -6.1404820908e+00 +8.1827138286e+00 +3.1665476491e+01 3.3277090127e+01 0.0000000000e+00 0.0000e+00 -1.0000e+00
      -14  1    6    6    0    0 -1.6567521033e+01 -1.4611439877e+02 +1.4551546947e+02 2.0687835106e+02 0.0000000000e+00 0.0000e+00 1.0000e+00
       21  1    1    2  503  501 -2.3459857011e+01 +2.6178457589e+00 +1.6633926701e+02 1.6800586227e+02 0.0000000000e+00 0.0000e+00 1.0000e+00
<mgrwt>
<rscale>  3 0.42462395E+03</rscale>
<asrwt>0</asrwt>
<pdfrwt beam="2">  1        1 0.32058854E-01 0.42462395E+03</pdfrwt>
<pdfrwt beam="1">  1       -1 0.16158659E+00 0.42462395E+03</pdfrwt>
<totfact> 0.42345037E+01</totfact>
</mgrwt>
</event>
<event>
13      2 +1.4674046e+01 1.94149900e+02 7.54677100e-03 1.15677200e-01
       21 -1    0    0  501  502 +0.0000000000e+00 +0.0000000000e+00 +2.7984871016e+02 2.7984871016e+02 0.0000000000e+00 0.0000e+00 -1.0000e+00
       21 -1    0    0  504  503 -0.0000000000e+00 -0.0000000000e+00 -2.2819907187e+02 2.2819907187e+02 0.0000000000e+00 0.0000e+00 -1.0000e+00
       -6  2    1    2    0  503 -5.1887747761e+01 +2.6793438741e+01 -1.3501634702e+01 1.8343113419e+02 1.7336222231e+02 0.0000e+00 0.0000e+00
      -24  2    3    3    0    0 -8.4293179863e+01 -2.2074776098e+01 -2.9335248162e+01 1.2251309280e+02 8.0970767643e+01 0.0000e+00 0.0000e+00
        6  2    1    2  501    0 +7.8436263873e+01 +2.9713480860e+01 -3.7347309969e+01 2.0460075231e+02 1.8284285014e+02 0.0000e+00 0.0000e+00
       24  2    5    5    0    0 +1.1605976184e+02 -2.4493147438e+00 -5.4240442082e+01 1.5208941131e+02 8.1934705805e+01 0.0000e+00 0.0000e+00
        5  1    5    5  501    0 -3.7623497967e+01 +3.2162795604e+01 +1.6893132113e+01 5.2511340994e+01 4.7000000000e+00 0.0000e+00 -1.0000e+00
      -13  1    6    6    0    0 +1.3456891821e+01 -3.0909036856e+01 -2.7704289823e+00 3.3825016979e+01 0.0000000000e+00 0.0000e+00 1.0000e+00
       14  1    6    6    0    0 +1.0260287002e+02 +2.8459722113e+01 -5.1470013100e+01 1.1826439433e+02 0.0000000000e+00 0.0000e+00 -1.0000e+00
       -5  1    3    3    0  503 +3.2405432102e+01 +4.8868214839e+01 +1.5833613460e+01 6.0918041387e+01 4.7000000000e+00 0.0000e+00 1.0000e+00
       13  1    4    4    0    0 -3.7314082136e+01 -1.3304939298e+01 +2.7523125501e+01 4.8237791955e+01 0.0000000000e+00 0.0000e+00 -1.0000e+00
      -14  1    4    4    0    0 -4.6979097727e+01 -8.7698368001e+00 -5.6858373663e+01 7.4275300850e+01 0.0000000000e+00 0.0000e+00 1.0000e+00
       21  1    1    2  504  502 -2.6548516112e+01 -5.6506919602e+01 +1.0249858296e+02 1.2001589553e+02 0.0000000000e+00 0.0000e+00 -1.0000e+00
<mgrwt>
<rscale>  3 0.19188529E+03</rscale>
<asrwt>0</asrwt>
<pdfrwt beam="1">  1       21 0.43053647E-01 0.19414987E+03</pdfrwt>
<pdfrwt beam="2">  1       21 0.35107550E-01 0.19414987E+03</pdfrwt>
<totfact> 0.40546709E+04</totfact>
</mgrwt>
</event>
<event>
14      3 +1.4674046e+01 2.25245300e+02 7.54677100e-03 1.13008500e-01
       21 -1    0    0  505  502 +0.0000000000e+00 +0.0000000000e+00 +2.8594826631e+02 2.8594826631e+02 0.0000000000e+00 0.0000e+00 1.0000e+00
       21 -1    0    0  501  503 -0.0000000000e+00 -0.0000000000e+00 -4.8124845884e+02 4.8124845884e+02 0.0000000000e+00 0.0000e+00 -1.0000e+00
        6  2    1    2  501    0 -2.3281458651e+02 +8.9256120696e+01 -7.1942629587e+01 3.1237951897e+02 1.7388483300e+02 0.0000e+00 0.0000e+00
       24  2    3    3    0    0 -2.1604651074e+02 +1.2589323922e+02 -5.4398780758e+01 2.6818310000e+02 8.0235561260e+01 0.0000e+00 0.0000e+00
       -6  2    1    2    0  502 +8.6844400575e+01 -4.5609574189e+01 +3.8508556938e+01 2.0299678068e+02 1.7350101106e+02 0.0000e+00 0.0000e+00
      -24  2    5    5    0    0 +5.6755429063e+01 -5.4529217349e+01 -3.7601301684e+01 1.2053644585e+02 8.3189918962e+01 0.0000e+00 0.0000e+00
        5  1    3    3  501    0 -1.6768075765e+01 -3.6637118523e+01 -1.7543848829e+01 4.4196418976e+01 4.7000000000e+00 0.0000e+00 -1.0000e+00
      -13  1    4    4    0    0 -1.3043138062e+01 +2.3651833101e+01 +1.4523345376e+01 3.0666923883e+01 0.0000000000e+00 0.0000e+00 1.0000e+00
       14  1    4    4    0    0 -2.0300337268e+02 +1.0224140612e+02 -6.8922126134e+01 2.3751617611e+02 0.0000000000e+00 0.0000e+00 -1.0000e+00
       -5  1    5    5    0  502 +3.0088971511e+01 +8.9196431605e+00 +7.6109858623e+01 8.2460334830e+01 4.7000000000e+00 0.0000e+00 1.0000e+00
       13  1    6    6    0    0 +2.5214896057e+01 -7.3320334692e+01 -2.9369704639e+01 8.2911048799e+01 0.0000000000e+00 0.0000e+00 -1.0000e+00
      -14  1    6    6    0    0 +3.1540533006e+01 +1.8791117342e+01 -8.2315970458e+00 3.7625397051e+01 0.0000000000e+00 0.0000e+00 1.0000e+00
       21  1    1    2  504  503 +1.3147452343e+02 -7.6072405571e+01 -1.5215802959e+02 2.1499913295e+02 0.0000000000e+00 0.0000e+00 -1.0000e+00
       21  1    1    2  505  504 +1.4495662503e+01 +3.2425859064e+01 -9.7080902969e+00 3.6821292544e+01 0.0000000000e+00 0.0000e+00 -1.0000e+00
<mgrwt>
<rscale>  4 0.22517124E+03</rscale>
<asrwt>0</asrwt>
<pdfrwt beam="1">  1       21 0.43992041E-01 0.22524532E+03</pdfrwt>
<pdfrwt beam="2">  1       21 0.74038224E-01 0.22524532E+03</pdfrwt>
<totfact> 0.79423133E+03</totfact>
</mgrwt>
</event>
<event>
13      3 +1.4674046e+01 3.13479100e+02 7.54677100e-03 1.10035700e-01
       21 -1    0    0  505  502 +0.0000000000e+00 +0.0000000000e+00 +9.3051914005e+02 9.3051914005e+02 0.0000000000e+00 0.0000e+00 -1.0000e+00
       21 -1    0    0  504  503 -0.0000000000e+00 -0.0000000000e+00 -3.6613840000e+02 3.6613840000e+02 0.0000000000e+00 0.0000e+00 -1.0000e+00
       24  2    1    2    0    0 -3.1769311795e+01 +8.5798728693e+01 +2.5568420512e+02 2.8312239129e+02 8.0082236998e+01 0.0000e+00 0.0000e+00
       -6  2    1    2    0  502 -3.2179570675e+01 -1.2669575698e+00 +1.3913994427e+02 2.2363129085e+02 1.7208689725e+02 0.0000e+00 0.0000e+00
      -24  2    4    4    0    0 -6.2259321861e+01 +1.9487135166e+01 +3.0099869693e+01 1.0853415074e+02 8.1349174100e+01 0.0000e+00 0.0000e+00
        5  1    1    2  501    0 +8.6658509892e+01 -1.1392585069e+02 +3.6097980614e+01 1.4769546708e+02 4.7000000000e+00 0.0000e+00 -1.0000e+00
      -13  1    3    3    0    0 -4.5850270480e+01 +1.4322642295e+01 +1.1679182881e+02 1.2628426926e+02 0.0000000000e+00 0.0000e+00 1.0000e+00
       14  1    3    3    0    0 +1.4080958685e+01 +7.1476086397e+01 +1.3889237631e+02 1.5683812203e+02 0.0000000000e+00 0.0000e+00 -1.0000e+00
       -5  1    4    4    0  502 +3.0079751185e+01 -2.0754092736e+01 +1.0904007457e+02 1.1509714010e+02 4.7000000000e+00 0.0000e+00 1.0000e+00
       13  1    5    5    0    0 -6.7413983457e+01 +2.1371644070e+01 +5.0828340572e+01 8.7091403371e+01 0.0000000000e+00 0.0000e+00 -1.0000e+00
      -14  1    5    5    0    0 +5.1546615962e+00 -1.8845089037e+00 -2.0728470879e+01 2.1442747374e+01 0.0000000000e+00 0.0000e+00 1.0000e+00
       21  1    1    2  504  501 +7.3197746842e+00 -1.9179412783e+01 -2.5185283021e+02 2.5268810234e+02 0.0000000000e+00 0.0000e+00 -1.0000e+00
       21  1    1    2  505  503 -3.0029402106e+01 +4.8573492353e+01 +3.8531144026e+02 3.8952028849e+02 0.0000000000e+00 0.0000e+00 -1.0000e+00
<mgrwt>
<rscale>  4 0.27161906E+03</rscale>
<asrwt>0</asrwt>
<pdfrwt beam="1">  1       21 0.14315679E+00 0.31347910E+03</pdfrwt>
<pdfrwt beam="2">  1       21 0.56328985E-01 0.31347910E+03</pdfrwt>
<totfact> 0.90685360E+02</totfact>
</mgrwt>
</event>
<event>
12      1 +1.4674046e+01 1.85174200e+02 7.54677100e-03 1.16307300e-01
       21 -1    0    0  503  502 +0.0000000000e+00 +0.0000000000e+00 +1.9525052134e+02 1.9525052134e+02 0.0000000000e+00 0.0000e+00 -1.0000e+00
       21 -1    0    0  501  503 -0.0000000000e+00 -0.0000000000e+00 -1.8176124169e+02 1.8176124169e+02 0.0000000000e+00 0.0000e+00 1.0000e+00
        6  2    1    2  501    0 -1.3637400306e+01 +6.4189582769e+01 -2.9983648835e+01 1.8680299527e+02 1.7230803412e+02 0.0000e+00 0.0000e+00
       24  2    3    3    0    0 -4.1476360742e+01 +8.9511800129e+01 -5.8067114053e+01 1.3961196404e+02 7.9919083486e+01 0.0000e+00 0.0000e+00
       -6  2    1    2    0  502 +1.3637400306e+01 -6.4189582769e+01 +4.3472928482e+01 1.9020876776e+02 1.7315657250e+02 0.0000e+00 0.0000e+00
      -24  2    5    5    0    0 +1.9254865322e+01 -1.1078767412e+02 +2.7615973389e+01 1.4044461344e+02 7.9482003503e+01 0.0000e+00 0.0000e+00
        5  1    3    3  501    0 +2.7838960436e+01 -2.5322217361e+01 +2.8083465218e+01 4.7191031234e+01 4.7000000000e+00 0.0000e+00 -1.0000e+00
      -13  1    4    4    0    0 -1.5141577902e+01 -9.7866063475e+00 -2.6666052376e+01 3.2188870662e+01 0.0000000000e+00 0.0000e+00 1.0000e+00
       14  1    4    4    0    0 -2.6334782841e+01 +9.9298406477e+01 -3.1401061677e+01 1.0742309338e+02 0.0000000000e+00 0.0000e+00 -1.0000e+00
       -5  1    5    5    0  502 -5.6174650158e+00 +4.6598091354e+01 +1.5856955093e+01 4.9764154326e+01 4.7000000000e+00 0.0000e+00 1.0000e+00
       13  1    6    6    0    0 -2.5075102136e+01 -7.6344467639e+01 +2.5350685176e+01 8.4260878972e+01 0.0000000000e+00 0.0000e+00 -1.0000e+00
      -14  1    6    6    0    0 +4.4329967457e+01 -3.4443206483e+01 +2.2652882129e+00 5.6183734464e+01 0.0000000000e+00 0.0000e+00 1.0000e+00
<mgrwt>
<rscale>  2 0.18497556E+03</rscale>
<asrwt>0</asrwt>
<pdfrwt beam="1">  1       21 0.30038542E-01 0.18517419E+03</pdfrwt>
<pdfrwt beam="2">  1       21 0.27963268E-01 0.18517419E+03</pdfrwt>
<totfact> 0.13016363E+05</totfact>
</mgrwt>
</event>
<event>
13      2 +1.4674046e+01 3.00526600e+02 7.54677100e-03 1.08504000e-01
       21 -1    0    0  504  502 +0.0000000000e+00 +0.0000000000e+00 +1.8085666104e+02 1.8085666104e+02 0.0000000000e+00 0.0000e+00 -1.0000e+00
       21 -1    0    0  502  503 -0.0000000000e+00 -0.0000000000e+00 -6.7057116372e+02 6.7057116372e+02 0.0000000000e+00 0.0000e+00 1.0000e+00
       -6  2    1    2    0  503 +2.2408712562e+02 +1.1044410003e+02 -4.1798130918e+02 5.1653098272e+02 1.7228738257e+02 0.0000e+00 0.0000e+00
      -24  2    3    3    0    0 +5.7711278727e+01 +3.5842888125e-01 -1.0323606156e+02 1.4385627427e+02 8.1891532394e+01 0.0000e+00 0.0000e+00
        6  2    1    2  501    0 -2.2270099774e+02 -7.9030429328e+01 -5.1357685341e+01 2.9742816993e+02 1.7315992975e+02 0.0000e+00 0.0000e+00
       24  2    5    5    0    0 -2.0828021076e+02 -1.0439283395e+02 -1.2889455534e+01 2.4891935248e+02 8.6695997604e+01 0.0000e+00 0.0000e+00
        5  1    5    5  501    0 -1.4420786975e+01 +2.5362404626e+01 -3.8468229807e+01 4.8508817445e+01 4.7000000000e+00 0.0000e+00 -1.0000e+00
      -13  1    6    6    0    0 -5.3576972157e+01 -3.2190386418e-01 -3.0479381862e+01 6.1640800500e+01 0.0000000000e+00 0.0000e+00 1.0000e+00
       14  1    6    6    0    0 -1.5470323860e+02 -1.0407093009e+02 +1.7589926328e+01 1.8727855198e+02 0.0000000000e+00 0.0000e+00 -1.0000e+00
       -5  1    3    3    0  503 +1.6637584689e+02 +1.1008567114e+02 -3.1474524762e+02 3.7267470845e+02 4.7000000000e+00 0.0000e+00 1.0000e+00
       13  1    4    4    0    0 +3.0353754098e+01 +2.6900836914e+01 -8.0882318019e+00 4.1357283617e+01 0.0000000000e+00 0.0000e+00 -1.0000e+00
      -14  1    4    4    0    0 +2.7357524629e+01 -2.6542408033e+01 -9.5147829753e+01 1.0249899065e+02 0.0000000000e+00 0.0000e+00 1.0000e+00
       21  1    1    2  504  501 -1.3861278821e+00 -3.1413670697e+01 -2.0375508159e+01 3.7468672113e+01 0.0000000000e+00 0.0000e+00 1.0000e+00
<mgrwt>
<rscale>  3 0.30040101E+03</rscale>
<asrwt>0</asrwt>
<pdfrwt beam="1">  1       21 0.27824102E-01 0.30052656E+03</pdfrwt>
<pdfrwt beam="2">  1       21 0.10316479E+00 0.30052656E+03</pdfrwt>
<totfact> 0.88205726E+03</totfact>
</mgrwt>
</event>
<event>
13      2 +1.4674046e+01 1.75934400e+02 7.54677100e-03 1.17202500e-01
       21 -1    0    0  504  502 +0.0000000000e+00 +0.0000000000e+00 +4.0787924341e+02 4.0787924341e+02 0.0000000000e+00 0.0000e+00 1.0000e+00
       21 -1    0    0  501  503 -0.0000000000e+00 -0.0000000000e+00 -1.3528370745e+02 1.3528370745e+02 0.0000000000e+00 0.0000e+00 1.0000e+00
        6  2    1    2  501    0 -1.4903200341e+01 -4.2293953426e+01 +2.3733893659e+02 2.9701425117e+02 1.7284909806e+02 0.0000e+00 0.0000e+00
       24  2    3    3    0    0 +5.7521473409e+01 -1.6277509416e+01 +1.5403619898e+02 1.8350819485e+02 7.9840026095e+01 0.0000e+00 0.0000e+00
       -6  2    1    2    0  502 -8.8355973337e+00 +2.9902085350e+01 -2.8466774624e+01 1.7702737663e+02 1.7191897025e+02 0.0000e+00 0.0000e+00
      -24  2    5    5    0    0 +2.0791164637e+01 -4.2897742565e+01 -2.6047594736e+01 9.8252365360e+01 8.1869171629e+01 0.0000e+00 0.0000e+00
        5  1    3    3  501    0 -7.2424673750e+01 -2.6016444010e+01 +8.3302737613e+01 1.1350605632e+02 4.7000000000e+00 0.0000e+00 -1.0000e+00
      -13  1    4    4    0    0 +1.7985736200e+01 +2.0860572107e+01 +1.1071268056e+02 1.1408745686e+02 0.0000000000e+00 0.0000e+00 1.0000e+00
       14  1    4    4    0    0 +3.9535737209e+01 -3.7138081523e+01 +4.3323518418e+01 6.9420737997e+01 0.0000000000e+00 0.0000e+00 -1.0000e+00
       -5  1    5    5    0  502 -2.9626761971e+01 +7.2799827915e+01 -2.4191798879e+00 7.8775011270e+01 4.7000000000e+00 0.0000e+00 1.0000e+00
       13  1    6    6    0    0 +2.1078090949e+01 -6.5179438295e+01 -6.8586816587e+00 6.8845381897e+01 0.0000000000e+00 0.0000e+00 -1.0000e+00
      -14  1    6    6    0    0 -2.8692631139e-01 +2.2281695730e+01 -1.9188913078e+01 2.9406983463e+01 0.0000000000e+00 0.0000e+00 1.0000e+00
       21  1    1    2  504  503 +2.3738797674e+01 +1.2391868077e+01 +6.3723373985e+01 6.9121323059e+01 0.0000000000e+00 0.0000e+00 1.0000e+00
<mgrwt>
<rscale>  3 0.17570550E+03</rscale>
<asrwt>0</asrwt>
<pdfrwt beam="1">  1       21 0.62750652E-01 0.17593438E+03</pdfrwt>
<pdfrwt beam="2">  1       21 0.20812878E-01 0.17593438E+03</pdfrwt>
<totfact> 0.50807056E+04</totfact>
</mgrwt>
</event>
<event>
12      3 +1.4674046e+01 4.84124500e+02 7.54677100e-03 1.02239900e-01
        1 -1    0    0  503    0 +0.0000000000e+00 +0.0000000000e+00 +9.2775634866e+02 9.2775634866e+02 0.0000000000e+00 0.0000e+00 1.0000e+00
        1 -1    0    0  501    0 -0.0000000000e+00 -0.0000000000e+00 -3.3487294831e+03 3.3487294831e+03 0.0000000000e+00 0.0000e+00 -1.0000e+00
       24  2    1    2    0    0 +1.4075267274e+02 -2.1885997694e+02 +1.3621610907e+02 3.0527247152e+02 8.3219283253e+01 0.0000e+00 0.0000e+00
      -24  2    1    2    0    0 -6.5273109260e+01 +2.5138808053e+01 -5.6575597030e+02 5.7586390206e+02 8.1528383432e+01 0.0000e+00 0.0000e+00
        5  1    1    2  501    0 +2.1034107289e+02 +2.9146271731e+01 -1.0169314790e+01 2.1264613109e+02 4.7000000000e+00 0.0000e+00 -1.0000e+00
      -13  1    3    3    0    0 +4.9701094927e+01 -3.5930770812e+01 +3.1126360953e+00 6.1407716384e+01 0.0000000000e+00 0.0000e+00 1.0000e+00
       14  1    3    3    0    0 +9.1051577814e+01 -1.8292920613e+02 +1.3310347298e+02 2.4386475513e+02 0.0000000000e+00 0.0000e+00 -1.0000e+00
       -5  1    1    2    0  502 -2.4935462925e+02 +1.2170030015e+02 -7.9160614294e+02 8.3883912029e+02 4.7000000000e+00 0.0000e+00 1.0000e+00
       13  1    4    4    0    0 -5.4103481583e+01 -1.9095072118e+01 -2.3125118354e+02 2.3826228906e+02 0.0000000000e+00 0.0000e+00 -1.0000e+00
      -14  1    4    4    0    0 -1.1169627677e+01 +4.4233880170e+01 -3.3450478676e+02 3.3760161300e+02 0.0000000000e+00 0.0000e+00 1.0000e+00
        1  1    1    2  502    0 -2.3336793347e+01 +1.7418638852e+00 +5.7660201627e+02 5.7707670650e+02 0.0000000000e+00 0.0000e+00 1.0000e+00
        1  1    1    2  503    0 -1.3129213778e+01 +4.1132733118e+01 -1.7662598318e+03 1.7667875003e+03 0.0000000000e+00 0.0000e+00 -1.0000e+00
<mgrwt>
<rscale>  4 0.46830764E+03</rscale>
<asrwt>0</asrwt>
<pdfrwt beam="1">  1        1 0.14273175E+00 0.48412452E+03</pdfrwt>
<pdfrwt beam="2">  1        1 0.51518914E+00 0.48412452E+03</pdfrwt>
<totfact> 0.79149828E-01</totfact>
</mgrwt>
</event>
<event>
14      3 +1.4674046e+01 1.95565200e+02 7.54677100e-03 1.15386900e-01
       21 -1    0    0  505  502 +0.0000000000e+00 +0.0000000000e+00 +3.7843135209e+02 3.7843135209e+02 0.0000000000e+00 0.0000e+00 -1.0000e+00
       21 -1    0    0  504  503 -0.0000000000e+00 -0.0000000000e+00 -7.0905150107e+02 7.0905150107e+02 0.0000000000e+00 0.0000e+00 1.0000e+00
        6  2    1    2  501    0 +9.1041815699e+01 +2.2444105193e+01 -2.1578259031e+01 1.9788143609e+02 1.7291353741e+02 0.0000e+00 0.0000e+00
       24  2    3    3    0    0 +1.1245553870e+02 +6.2607639445e+01 -1.9647235412e+01 1.5208322795e+02 7.8595990130e+01 0.0000e+00 0.0000e+00
       -6  2    1    2    0  502 -9.3256714656e+01 -5.8021028820e+01 +2.2707349993e+02 3.0678945877e+02 1.7462572270e+02 0.0000e+00 0.0000e+00
      -24  2    5    5    0    0 -7.7526770785e+00 +2.5146598637e+00 +1.6873099436e+02 1.8678342558e+02 7.9696123473e+01 0.0000e+00 0.0000e+00
        5  1    3    3  501    0 -2.1413722996e+01 -4.0163534252e+01 -1.9310236191e+00 4.5798208135e+01 4.7000000000e+00 0.0000e+00 -1.0000e+00
      -13  1    4    4    0    0 +1.0389441826e+02 +5.2419895766e+01 +1.2743641649e+01 1.1706534936e+02 0.0000000000e+00 0.0000e+00 1.0000e+00
       14  1    4    4    0    0 +8.5611204343e+00 +1.0187743679e+01 -3.2390877061e+01 3.5017878592e+01 0.0000000000e+00 0.0000e+00 -1.0000e+00
       -5  1    5    5    0  502 -8.5504037578e+01 -6.0535688684e+01 +5.8342505564e+01 1.2000603319e+02 4.7000000000e+00 0.0000e+00 1.0000e+00
       13  1    6    6    0    0 -3.9875305295e+01 -9.1712671491e-01 +5.1251274437e+01 6.4942853534e+01 0.0000000000e+00 0.0000e+00 -1.0000e+00
      -14  1    6    6    0    0 +3.2122628216e+01 +3.4317865786e+00 +1.1747971993e+02 1.2184057205e+02 0.0000000000e+00 0.0000e+00 1.0000e+00
       21  1    1    2  504  501 -4.9235087964e+01 +4.9315236880e+01 -5.2345755033e+02 5.2807565128e+02 0.0000000000e+00 0.0000e+00 1.0000e+00
       21  1    1    2  505  503 +5.1449986921e+01 -1.3738313252e+01 -1.2657839544e+01 5.4736307029e+01 0.0000000000e+00 0.0000e+00 -1.0000e+00
<mgrwt>
<rscale>  4 0.19518227E+03</rscale>
<asrwt>0</asrwt>
<pdfrwt beam="1">  1       21 0.58220207E-01 0.19556522E+03</pdfrwt>
<pdfrwt beam="2">  1       21 0.10908485E+00 0.19556522E+03</pdfrwt>
<totfact> 0.18369862E+03</totfact>
</mgrwt>
</event>
<event>
14      3 +1.4674046e+01 6.86395400e+02 7.54677100e-03 9.74082200e-02
       21 -1    0    0  505  502 +0.0000000000e+00 +0.0000000000e+00 +1.4342888156e+03 1.4342888156e+03 0.0000000000e+00 0.0000e+00 -1.0000e+00
       21 -1    0    0  501  503 -0.0000000000e+00 -0.0000000000e+00 -6.9055263435e+02 6.9055263435e+02 0.0000000000e+00 0.0000e+00 1.0000e+00
        6  2    1    2  501    0 +4.9038610130e+02 +4.5991260654e+02 +7.6018779128e+02 1.0295419268e+03 1.7341559036e+02 0.0000e+00 0.0000e+00
       24  2    3    3    0    0 +2.7835569122e+02 +2.0441406980e+02 +4.6808260249e+02 5.8729320899e+02 8.0901098854e+01 0.0000e+00 0.0000e+00
       -6  2    1    2    0  504 -5.8821484749e+02 -3.5328578218e+02 +2.3323585426e+01 7.0819620751e+02 1.7375364167e+02 0.0000e+00 0.0000e+00
      -24  2    5    5    0    0 -5.3804029116e+02 -2.8128820329e+02 +5.4337285875e+01 6.1500244653e+02 8.1639821093e+01 0.0000e+00 0.0000e+00
        5  1    3    3  501    0 +2.1203041008e+02 +2.5549853674e+02 +2.9210518878e+02 4.4224871779e+02 4.7000000000e+00 0.0000e+00 -1.0000e+00
      -13  1    4    4    0    0 +6.2872529961e+01 +5.5948532887e+01 +1.7630679327e+02 1.9536447658e+02 0.0000000000e+00 0.0000e+00 1.0000e+00
       14  1    4    4    0    0 +2.1548316126e+02 +1.4846553691e+02 +2.9177580923e+02 3.9192873241e+02 0.0000000000e+00 0.0000e+00 -1.0000e+00
       -5  1    5    5    0  504 -5.0174556338e+01 -7.1997578890e+01 -3.1013700449e+01 9.3193760978e+01 4.7000000000e+00 0.0000e+00 1.0000e+00
       13  1    6    6    0    0 -3.7354782323e+01 -4.6207188920e+01 +2.8842010308e+00 5.9487836453e+01 0.0000000000e+00 0.0000e+00 -1.0000e+00
      -14  1    6    6    0    0 -5.0068550883e+02 -2.3508101437e+02 +5.1453084844e+01 5.5551461008e+02 0.0000000000e+00 0.0000e+00 1.0000e+00
       21  1    1    2  504  502 +6.8936361326e+01 -1.2930379364e+02 +1.4057019493e+02 2.0305583632e+02 0.0000000000e+00 0.0000e+00 -1.0000e+00
       21  1    1    2  505  503 +2.8892384867e+01 +2.2676969283e+01 -1.8034539035e+02 1.8404747936e+02 0.0000000000e+00 0.0000e+00 1.0000e+00
<mgrwt>
<rscale>  4 0.68637405E+03</rscale>
<asrwt>0</asrwt>
<pdfrwt beam="1">  1       21 0.22065982E+00 0.68639543E+03</pdfrwt>
<pdfrwt beam="2">  1       21 0.10623887E+00 0.68639543E+03</pdfrwt>
<totfact> 0.49243573E+01</totfact>
</mgrwt>
</event>
<event>
12      1 +1.4674046e+01 1.92637300e+02 7.54677100e-03 1.15617600e-01
       21 -1    0    0  501  502 +0.0000000000e+00 +0.0000000000e+00 +7.7634715693e+01 7.7634715693e+01 0.0000000000e+00 0.0000e+00 -1.0000e+00
       21 -1    0    0  502  503 -0.0000000000e+00 -0.0000000000e+00 -4.9746259335e+02 4.9746259335e+02 0.0000000000e+00 0.0000e+00 -1.0000e+00
       -6  2    1    2    0  503 +8.3380813129e+01 +1.4634297336e+01 -2.6813590193e+02 3.3016056428e+02 1.7303934132e+02 0.0000e+00 0.0000e+00
      -24  2    3    3    0    0 +2.2416260964e-01 -1.3375930750e+01 -4.5908508720e+01 9.1190470552e+01 7.7647569017e+01 0.0000e+00 0.0000e+00
        6  2    1    2  501    0 -8.3380813129e+01 -1.4634297336e+01 -1.5169197573e+02 2.4493674477e+02 1.7267608630e+02 0.0000e+00 0.0000e+00
       24  2    5    5    0    0 -5.3035104006e+01 -6.9377920184e+01 -1.4139788329e+02 1.8133026205e+02 7.2534712164e+01 0.0000e+00 0.0000e+00
        5  1    5    5  501    0 -3.0345709122e+01 +5.4743622848e+01 -1.0294092436e+01 6.3606482718e+01 4.7000000000e+00 0.0000e+00 -1.0000e+00
      -13  1    6    6    0    0 -2.4458599064e+01 -7.8277501892e+01 -1.1608457471e+02 1.4213099190e+02 0.0000000000e+00 0.0000e+00 1.0000e+00
       14  1    6    6    0    0 -2.8576504942e+01 +8.8995817080e+00 -2.5313308578e+01 3.9199270152e+01 0.0000000000e+00 0.0000e+00 -1.0000e+00
       -5  1    3    3    0  503 +8.3156650519e+01 +2.8010228086e+01 -2.2222739321e+02 2.3897009373e+02 4.7000000000e+00 0.0000e+00 1.0000e+00
       13  1    4    4    0    0 +2.2354655169e+01 -3.8242765856e+01 -3.3981263668e+01 5.5829795168e+01 0.0000000000e+00 0.0000e+00 -1.0000e+00
      -14  1    4    4    0    0 -2.2130492559e+01 +2.4866835105e+01 -1.1927245052e+01 3.5360675384e+01 0.0000000000e+00 0.0000e+00 1.0000e+00
<mgrwt>
<rscale>  2 0.19255571E+03</rscale>
<asrwt>0</asrwt>
<pdfrwt beam="1">  1       21 0.11943803E-01 0.19263732E+03</pdfrwt>
<pdfrwt beam="2">  1       21 0.76532705E-01 0.19263732E+03</pdfrwt>
<totfact> 0.89929573E+04</totfact>
</mgrwt>
</event>
<event>
12      1 +1.4674046e+01 2.07317600e+02 7.54677100e-03 1.14696900e-01
       21 -1    0    0  503  502 +0.0000000000e+00 +0.0000000000e+00 +2.6095368917e+02 2.6095368917e+02 0.0000000000e+00 0.0000e+00 1.0000e+00
       21 -1    0    0  501  503 -0.0000000000e+00 -0.0000000000e+00 -1.5458754583e+02 1.5458754583e+02 0.0000000000e+00 0.0000e+00 1.0000e+00
        6  2    1    2  501    0 -7.5041387387e+01 -3.9085197113e+01 +2.7552079525e+01 1.9374796792e+02 1.7210547793e+02 0.0000e+00 0.0000e+00
       24  2    3    3    0    0 -6.7061269362e+01 +2.9931216123e+00 -4.0238910887e+01 1.1342377747e+02 8.2095132142e+01 0.0000e+00 0.0000e+00
       -6  2    1    2    0  502 +7.5041387387e+01 +3.9085197113e+01 +7.8814063811e+01 2.2179326708e+02 1.8926630501e+02 0.0000e+00 0.0000e+00
      -24  2    5    5    0    0 +6.7046306342e+01 -2.1092823102e+01 -1.9865261228e+01 1.0584062748e+02 7.6599578603e+01 0.0000e+00 0.0000e+00
        5  1    3    3  501    0 -7.9801180253e+00 -4.2078318726e+01 +6.7790990412e+01 8.0324190450e+01 4.7000000000e+00 0.0000e+00 -1.0000e+00
      -13  1    4    4    0    0 -1.0330528392e+01 +2.4910840908e-01 -5.4002955640e+01 5.4982734469e+01 0.0000000000e+00 0.0000e+00 1.0000e+00
       14  1    4    4    0    0 -5.6730740969e+01 +2.7440132032e+00 +1.3764044753e+01 5.8441043004e+01 0.0000000000e+00 0.0000e+00 -1.0000e+00
       -5  1    5    5    0  502 +7.9950810452e+00 +6.0178020215e+01 +9.8679325039e+01 1.1595263959e+02 4.7000000000e+00 0.0000e+00 1.0000e+00
       13  1    6    6    0    0 +4.6270995097e+01 +2.5145557383e+01 -4.4140130241e+00 5.2846831072e+01 0.0000000000e+00 0.0000e+00 -1.0000e+00
      -14  1    6    6    0    0 +2.0775311244e+01 -4.6238380485e+01 -1.5451248204e+01 5.2993796413e+01 0.0000000000e+00 0.0000e+00 1.0000e+00
<mgrwt>
<rscale>  2 0.20331873E+03</rscale>
<asrwt>0</asrwt>
<pdfrwt beam="1">  1       21 0.40146721E-01 0.20731762E+03</pdfrwt>
<pdfrwt beam="2">  1       21 0.23782699E-01 0.20731762E+03</pdfrwt>
<totfact> 0.99008828E+04</totfact>
</mgrwt>
</event>
<event>
12      1 +1.4674046e+01 2.12576800e+02 7.54677100e-03 1.13956600e-01
       21 -1    0    0  501  502 +0.0000000000e+00 +0.0000000000e+00 +7.8228977882e+02 7.8228977882e+02 0.0000000000e+00 0.0000e+00 1.0000e+00
       21 -1    0    0  502  503 -0.0000000000e+00 -0.0000000000e+00 -5.7730928887e+01 5.7730928887e+01 0.0000000000e+00 0.0000e+00 1.0000e+00
       -6  2    1    2    0  503 +1.2397336594e+02 -6.4800987276e+00 +3.6079401311e+02 4.1869690458e+02 1.7240472983e+02 0.0000e+00 0.0000e+00
      -24  2    3    3    0    0 +1.4520102610e+02 -3.0380260689e+01 +3.4201486763e+02 3.8132609241e+02 8.0181798754e+01 0.0000e+00 0.0000e+00
        6  2    1    2  501    0 -1.2397336594e+02 +6.4800987276e+00 +3.6376483682e+02 4.2132380312e+02 1.7256159315e+02 0.0000e+00 0.0000e+00
       24  2    5    5    0    0 -4.0709312035e+01 +2.9529929112e+01 +2.9593083576e+02 3.1137954883e+02 8.2782238886e+01 0.0000e+00 0.0000e+00
        5  1    5    5  501    0 -8.3264053904e+01 -2.3049830385e+01 +6.7834001062e+01 1.0994425430e+02 4.7000000000e+00 0.0000e+00 -1.0000e+00
      -13  1    6    6    0    0 -3.0614211251e+01 -9.2093384380e+00 +3.5029633120e+01 4.7424856789e+01 0.0000000000e+00 0.0000e+00 1.0000e+00
       14  1    6    6    0    0 -1.0095100784e+01 +3.8739267550e+01 +2.6090120264e+02 2.6395469204e+02 0.0000000000e+00 0.0000e+00 -1.0000e+00
       -5  1    3    3    0  503 -2.1227660156e+01 +2.3900161961e+01 +1.8779145480e+01 3.7370812173e+01 4.7000000000e+00 0.0000e+00 1.0000e+00
       13  1    4    4    0    0 +1.1136334633e+02 -4.4460494406e+01 +3.1099307213e+02 3.3330949788e+02 0.0000000000e+00 0.0000e+00 -1.0000e+00
      -14  1    4    4    0    0 +3.3837679762e+01 +1.4080233717e+01 +3.1021795503e+01 4.8016594521e+01 0.0000000000e+00 0.0000e+00 1.0000e+00
<mgrwt>
<rscale>  2 0.21254495E+03</rscale>
<asrwt>0</asrwt>
<pdfrwt beam="1">  1       21 0.12035227E+00 0.21257679E+03</pdfrwt>
<pdfrwt beam="2">  1       21 0.88816820E-02 0.21257679E+03</pdfrwt>
<totfact> 0.51874685E+04</totfact>
</mgrwt>
</event>
<event>
13      2 +1.4674046e+01 2.21748500e+02 7.54677100e-03 1.13272600e-01
       21 -1    0    0  502  503 +0.0000000000e+00 +0.0000000000e+00 +4.9028772225e+02 4.9028772225e+02 0.0000000000e+00 0.0000e+00 -1.0000e+00
       -4 -1    0    0    0  501 -0.0000000000e+00 -0.0000000000e+00 -1.6740972008e+02 1.6740972008e+02 0.0000000000e+00 0.0000e+00 1.0000e+00
        6  2    1    2  502    0 -1.2821107389e+02 -1.6140745754e+01 +2.3403912460e+02 3.1773475049e+02 1.7170456221e+02 0.0000e+00 0.0000e+00
       24  2    3    3    0    0 -1.0861789673e+01 +3.0124332764e+01 +7.1643460639e+01 1.1205112530e+02 7.9982593917e+01 0.0000e+00 0.0000e+00
       -6  2    1    2    0  501 +1.4955150232e+02 +4.1634049180e+01 +1.4567732524e+02 2.7411490114e+02 1.7267903764e+02 0.0000e+00 0.0000e+00
      -24  2    5    5    0    0 +7.9373687907e+01 +7.6277013495e+01 +1.4268394874e+02 1.9565401333e+02 7.6180171866e+01 0.0000e+00 0.0000e+00
        5  1    3    3  502    0 -1.1734928422e+02 -4.6265078518e+01 +1.6239566396e+02 2.0568362519e+02 4.7000000000e+00 0.0000e+00 -1.0000e+00
      -13  1    4    4    0    0 -4.2601663969e+01 +4.1759106703e+00 +2.3553999242e+01 4.8858273436e+01 0.0000000000e+00 0.0000e+00 1.0000e+00
       14  1    4    4    0    0 +3.1739874296e+01 +2.5948422094e+01 +4.8089461398e+01 6.3192851866e+01 0.0000000000e+00 0.0000e+00 -1.0000e+00
       -5  1    5    5    0  501 +7.0177814416e+01 -3.4642964315e+01 +2.9933765001e+00 7.8460887808e+01 4.7000000000e+00 0.0000e+00 1.0000e+00
       13  1    6    6    0    0 +8.3068893903e+01 +4.5534753284e+01 +1.3285169802e+02 1.6316687335e+02 0.0000000000e+00 0.0000e+00 -1.0000e+00
      -14  1    6    6    0    0 -3.6952059957e+00 +3.0742260211e+01 +9.8322507191e+00 3.2487139986e+01 0.0000000000e+00 0.0000e+00 1.0000e+00
       -4  1    1    2    0  503 -2.1340428431e+01 -2.5493303426e+01 -5.6838447673e+01 6.5847790693e+01 0.0000000000e+00 0.0000e+00 1.0000e+00
<mgrwt>
<rscale>  3 0.22155878E+03</rscale>
<asrwt>0</asrwt>
<pdfrwt beam="1">  1       21 0.75428880E-01 0.22174852E+03</pdfrwt>
<pdfrwt beam="2">  1       -4 0.25755342E-01 0.22174852E+03</pdfrwt>
<totfact> 0.93446149E+02</totfact>
</mgrwt>
</event>
<event>
12      1 +1.4674046e+01 2.19686200e+02 7.54677100e-03 1.13477100e-01
       21 -1    0    0  501  502 +0.0000000000e+00 +0.0000000000e+00 +2.8993825057e+02 2.8993825057e+02 0.0000000000e+00 0.0000e+00 1.0000e+00
       21 -1    0    0  502  503 -0.0000000000e+00 -0.0000000000e+00 -5.0710422192e+02 5.0710422192e+02 0.0000000000e+00 0.0000e+00 -1.0000e+00
       -6  2    1    2    0  503 -1.1511986551e+02 +6.3376668983e+01 -4.3674348361e+02 4.8888332122e+02 1.7604785055e+02 0.0000e+00 0.0000e+00
      -24  2    3    3    0    0 -1.2170107202e+02 +8.9422662872e+01 -4.2592738470e+02 4.5954419935e+02 8.3421643181e+01 0.0000e+00 0.0000e+00
        6  2    1    2  501    0 +1.1511986551e+02 -6.3376668983e+01 +2.1957751226e+02 3.0815915127e+02 1.7169331092e+02 0.0000e+00 0.0000e+00
       24  2    5    5    0    0 +1.3259287994e+02 -5.9495083107e+00 +1.6417162940e+02 2.2633564076e+02 8.1604104799e+01 0.0000e+00 0.0000e+00
        5  1    5    5  501    0 -1.7473014431e+01 -5.7427160672e+01 +5.5405882860e+01 8.1823510507e+01 4.7000000000e+00 0.0000e+00 -1.0000e+00
      -13  1    6    6    0    0 +5.9800955697e+01 -5.1846097945e+00 +1.3531100702e+02 1.4802737282e+02 0.0000000000e+00 0.0000e+00 1.0000e+00
       14  1    6    6    0    0 +7.2791924244e+01 -7.6489851622e-01 +2.8860622372e+01 7.8308267945e+01 0.0000000000e+00 0.0000e+00 -1.0000e+00
       -5  1    3    3    0  503 +6.5812065057e+00 -2.6045993889e+01 -1.0816098915e+01 2.9339121876e+01 4.7000000000e+00 0.0000e+00 1.0000e+00
       13  1    4    4    0    0 -3.2227187296e+01 +2.4352662829e+01 -2.3853379625e+02 2.4192977440e+02 0.0000000000e+00 0.0000e+00 -1.0000e+00
      -14  1    4    4    0    0 -8.9473884720e+01 +6.5070000042e+01 -1.8739358844e+02 2.1761442494e+02 0.0000000000e+00 0.0000e+00 1.0000e+00
<mgrwt>
<rscale>  2 0.21881255E+03</rscale>
<asrwt>0</asrwt>
<pdfrwt beam="1">  1       21 0.44605885E-01 0.21968621E+03</pdfrwt>
<pdfrwt beam="2">  1       21 0.78016034E-01 0.21968621E+03</pdfrwt>
<totfact> 0.68880787E+03</totfact>
</mgrwt>
</event>
<event>
12      1 +1.4674046e+01 2.22562400e+02 7.54677100e-03 1.13201900e-01
       21 -1    0    0  503  502 +0.0000000000e+00 +0.0000000000e+00 +1.1199532036e+02 1.1199532036e+02 0.0000000000e+00 0.0000e+00 1.0000e+00
       21 -1    0    0  501  503 -0.0000000000e+00 -0.0000000000e+00 -4.7057317706e+02 4.7057317706e+02 0.0000000000e+00 0.0000e+00 1.0000e+00
        6  2    1    2  501    0 +1.0123895197e+02 +9.5792312627e+01 -2.5107746749e+02 3.3540390874e+02 1.7329280066e+02 0.0000e+00 0.0000e+00
       24  2    3    3    0    0 +8.3095384856e+01 +3.8897131056e+01 -2.4657429190e+02 2.7533212415e+02 8.1185388899e+01 0.0000e+00 0.0000e+00
       -6  2    1    2    0  502 -1.0123895197e+02 -9.5792312627e+01 -1.0750038921e+02 2.4716458867e+02 1.7351803267e+02 0.0000e+00 0.0000e+00
      -24  2    5    5    0    0 -8.9243648043e+01 -2.9103746841e+01 -6.4568243537e+00 1.2541425347e+02 8.2919163030e+01 0.0000e+00 0.0000e+00
        5  1    3    3  501    0 +1.8143567116e+01 +5.6895181571e+01 -4.5031755884e+00 6.0071784592e+01 4.7000000000e+00 0.0000e+00 -1.0000e+00
      -13  1    4    4    0    0 +4.3584444327e+01 -1.8650755223e+01 -6.2351593778e+01 7.8327362425e+01 0.0000000000e+00 0.0000e+00 1.0000e+00
       14  1    4    4    0    0 +3.9510940529e+01 +5.7547886279e+01 -1.8422269813e+02 1.9700476172e+02 0.0000000000e+00 0.0000e+00 -1.0000e+00
       -5  1    5    5    0  502 -1.1995303929e+01 -6.6688565786e+01 -1.0104356485e+02 1.2175033520e+02 4.7000000000e+00 0.0000e+00 1.0000e+00
       13  1    6    6    0    0 -7.7057103823e+01 -5.1795376709e+01 +1.2151288100e+01 9.3638731839e+01 0.0000000000e+00 0.0000e+00 -1.0000e+00
      -14  1    6    6    0    0 -1.2186544220e+01 +2.2691629868e+01 -1.8608112454e+01 3.1775521635e+01 0.0000000000e+00 0.0000e+00 1.0000e+00
<mgrwt>
<rscale>  2 0.22251845E+03</rscale>
<asrwt>0</asrwt>
<pdfrwt beam="1">  1       21 0.17230049E-01 0.22256235E+03</pdfrwt>
<pdfrwt beam="2">  1       21 0.72395873E-01 0.22256235E+03</pdfrwt>
<totfact> 0.51608441E+04</totfact>
</mgrwt>
</event>
<event>
13      2 +1.4674046e+01 2.24447500e+02 7.54677100e-03 1.13076100e-01
       21 -1    0    0  504  502 +0.0000000000e+00 +0.0000000000e+00 +1.1280780977e+03 1.1280780977e+03 0.0000000000e+00 0.0000e+00 1.0000e+00
       21 -1    0    0  501  503 -0.0000000000e+00 -0.0000000000e+00 -7.7828575855e+01 7.7828575855e+01 0.0000000000e+00 0.0000e+00 1.0000e+00
        6  2    1    2  501    0 +2.2154024702e+01 -1.4979386190e+02 +2.9163895866e+02 3.7197410377e+02 1.7430562181e+02 0.0000e+00 0.0000e+00
       24  2    3    3    0    0 +6.1515267963e+01 -3.5370564596e+01 +1.1017479779e+02 1.5381514769e+02 8.0532034365e+01 0.0000e+00 0.0000e+00
       -6  2    1    2    0  502 -4.1466018958e+01 +1.2973755097e+02 +7.7181225493e+02 8.0311871913e+02 1.7536891771e+02 0.0000e+00 0.0000e+00
      -24  2    5    5    0    0 -1.0603892939e+01 +1.2057809280e+02 +3.3707833282e+02 3.6716913543e+02 8.0869354813e+01 0.0000e+00 0.0000e+00
        5  1    3    3  501    0 -3.9361243260e+01 -1.1442329731e+02 +1.8146416086e+02 2.1815895607e+02 4.7000000000e+00 0.0000e+00 -1.0000e+00
      -13  1    4    4    0    0 +2.6576814734e+01 -8.9747003063e+00 -6.8420681487e+00 2.8873625050e+01 0.0000000000e+00 0.0000e+00 1.0000e+00
       14  1    4    4    0    0 +3.4938453229e+01 -2.6395864290e+01 +1.1701686594e+02 1.2494152264e+02 0.0000000000e+00 0.0000e+00 -1.0000e+00
       -5  1    5    5    0  502 -3.0862126019e+01 +9.1594581741e+00 +4.3473392211e+02 4.3594958370e+02 4.7000000000e+00 0.0000e+00 1.0000e+00
       13  1    6    6    0    0 +3.2362710135e+01 +2.7316351098e+01 +8.4580523835e+01 9.4590660516e+01 0.0000000000e+00 0.0000e+00 -1.0000e+00
      -14  1    6    6    0    0 -4.2966603075e+01 +9.3261741700e+01 +2.5249780898e+02 2.7257847491e+02 0.0000000000e+00 0.0000e+00 1.0000e+00
       21  1    1    2  504  503 +1.9311994256e+01 +2.0056310930e+01 -1.3201691708e+01 3.0813850688e+01 0.0000000000e+00 0.0000e+00 1.0000e+00
<mgrwt>
<rscale>  3 0.22423980E+03</rscale>
<asrwt>0</asrwt>
<pdfrwt beam="1">  1       21 0.17355047E+00 0.22444754E+03</pdfrwt>
<pdfrwt beam="2">  1       21 0.11973628E-01 0.22444754E+03</pdfrwt>
<totfact> 0.11596755E+04</totfact>
</mgrwt>
</event>
<event>
14      3 +1.4674046e+01 2.36104600e+02 7.54677100e-03 1.12268800e-01
       21 -1    0    0  505  502 +0.0000000000e+00 +0.0000000000e+00 +1.7355968278e+03 1.7355968278e+03 0.0000000000e+00 0.0000e+00 -1.0000e+00
       21 -1    0    0  504  503 -0.0000000000e+00 -0.0000000000e+00 -3.2589754417e+02 3.2589754417e+02 0.0000000000e+00 0.0000e+00 -1.0000e+00
       -6  2    1    2    0  503 -9.0820430695e+01 +2.3044146114e+02 +1.7488768425e+02 3.4957501394e+02 1.7396945313e+02 0.0000e+00 0.0000e+00
      -24  2    3    3    0    0 -3.6217849344e+01 +1.3846869902e+02 +2.5668240227e+01 1.6592054670e+02 7.9909048557e+01 0.0000e+00 0.0000e+00
        6  2    1    2  501    0 -1.7052356721e+01 -1.1131192465e+02 -9.1364122549e+01 2.2481381334e+02 1.7179266672e+02 0.0000e+00 0.0000e+00
       24  2    5    5    0    0 -2.2323465741e+01 +8.6371102286e+00 -2.7872534320e+01 8.8913749558e+01 8.0968141236e+01 0.0000e+00 0.0000e+00
        5  1    5    5  501    0 +5.2711090194e+00 -1.1994903488e+02 -6.3491588228e+01 1.3590006378e+02 4.7000000000e+00 0.0000e+00 -1.0000e+00
      -13  1    6    6    0    0 +2.9483483620e+01 -6.1089270415e+00 -5.6006548743e+00 3.0626167422e+01 0.0000000000e+00 0.0000e+00 1.0000e+00
       14  1    6    6    0    0 -5.1806949360e+01 +1.4746037270e+01 -2.2271879446e+01 5.8287582136e+01 0.0000000000e+00 0.0000e+00 -1.0000e+00
       -5  1    3    3    0  503 -5.4602581351e+01 +9.1972762122e+01 +1.4921944403e+02 1.8365446724e+02 4.7000000000e+00 0.0000e+00 1.0000e+00
       13  1    4    4    0    0 -5.4230747479e+01 +1.3398549749e+02 +1.7358405995e+01 1.4558297211e+02 0.0000000000e+00 0.0000e+00 -1.0000e+00
      -14  1    4    4    0    0 +1.8012898134e+01 +4.4832015273e+00 +8.3098342318e+00 2.0337574587e+01 0.0000000000e+00 0.0000e+00 1.0000e+00
       21  1    1    2  504  502 +6.1695067058e+01 -8.1488355578e+01 +1.3934790418e+03 1.3972224137e+03 0.0000000000e+00 0.0000e+00 -1.0000e+00
       21  1    1    2  505  501 +4.6177720358e+01 -3.7641180907e+01 -6.7303319921e+01 8.9883130953e+01 0.0000000000e+00 0.0000e+00 -1.0000e+00
<mgrwt>
<rscale>  4 0.23570375E+03</rscale>
<asrwt>0</asrwt>
<pdfrwt beam="1">  1       21 0.26701489E+00 0.23610459E+03</pdfrwt>
<pdfrwt beam="2">  1       21 0.50138084E-01 0.23610459E+03</pdfrwt>
<totfact> 0.18896785E+02</totfact>
</mgrwt>
</event>
<event>
13      2 +1.4674046e+01 2.51054200e+02 7.54677100e-03 1.11277200e-01
       21 -1    0    0  504  502 +0.0000000000e+00 +0.0000000000e+00 +1.7763031160e+02 1.7763031160e+02 0.0000000000e+00 0.0000e+00 -1.0000e+00
       21 -1    0    0  501  503 -0.0000000000e+00 -0.0000000000e+00 -6.5541122426e+02 6.5541122426e+02 0.0000000000e+00 0.0000e+00 -1.0000e+00
        6  2    1    2  501    0 +1.7270519418e+02 +9.0012822996e+01 -3.9121502469e+02 4.7034760524e+02 1.7392033179e+02 0.0000e+00 0.0000e+00
       24  2    3    3    0    0 +6.6078406629e+01 -2.0545158489e+01 -1.3054203242e+02 1.6775078108e+02 7.9439555411e+01 0.0000e+00 0.0000e+00
       -6  2    1    2    0  502 -1.6191391892e+02 -7.2879260811e+01 +2.5314723060e+01 2.4899572614e+02 1.7271517779e+02 0.0000e+00 0.0000e+00
      -24  2    5    5    0    0 -1.6154773418e+02 -1.0903261235e+02 +1.6859436864e+01 2.1156872007e+02 8.0568615020e+01 0.0000e+00 0.0000e+00
        5  1    3    3  501    0 +1.0662678755e+02 +1.1055798148e+02 -2.6067299226e+02 3.0259682416e+02 4.7000000000e+00 0.0000e+00 -1.0000e+00
      -13  1    4    4    0    0 +7.7812014531e+01 -3.0513494767e+01 -8.3054274466e+01 1.1782951869e+02 0.0000000000e+00 0.0000e+00 1.0000e+00
       14  1    4    4    0    0 -1.1733607903e+01 +9.9683362784e+00 -4.7487757956e+01 4.9921262386e+01 0.0000000000e+00 0.0000e+00 -1.0000e+00
       -5  1    5    5    0  502 -3.6618474274e-01 +3.6153351542e+01 +8.4552861953e+00 3.7427006074e+01 4.7000000000e+00 0.0000e+00 1.0000e+00
       13  1    6    6    0    0 -6.6151683803e+01 -1.4053840825e+01 +3.4298159079e+01 7.5828223163e+01 0.0000000000e+00 0.0000e+00 -1.0000e+00
      -14  1    6    6    0    0 -9.5396050373e+01 -9.4978771528e+01 -1.7438722214e+01 1.3574049691e+02 0.0000000000e+00 0.0000e+00 1.0000e+00
       21  1    1    2  504  503 -1.0791275262e+01 -1.7133562185e+01 -1.1188061104e+02 1.1369820448e+02 0.0000000000e+00 0.0000e+00 -1.0000e+00
<mgrwt>
<rscale>  3 0.25084557E+03</rscale>
<asrwt>0</asrwt>
<pdfrwt beam="1">  1       21 0.27327740E-01 0.25105417E+03</pdfrwt>
<pdfrwt beam="2">  1       21 0.10083250E+00 0.25105417E+03</pdfrwt>
<totfact> 0.99022330E+03</totfact>
</mgrwt>
</event>
<event>
14      3 +1.4674046e+01 1.86590800e+02 7.54677100e-03 1.16186800e-01
       21 -1    0    0  503  502 +0.0000000000e+00 +0.0000000000e+00 +6.8152194560e+01 6.8152194560e+01 0.0000000000e+00 0.0000e+00 -1.0000e+00
       21 -1    0    0  501  503 -0.0000000000e+00 -0.0000000000e+00 -8.4406825882e+02 8.4406825882e+02 0.0000000000e+00 0.0000e+00 1.0000e+00
        6  2    1    2  501    0 -4.0968340068e+01 +7.4082251156e+01 -4.2633122440e+02 4.6766152108e+02 1.7257578213e+02 0.0000e+00 0.0000e+00
       24  2    3    3    0    0 -2.9456441212e+00 -2.0702264312e+01 -1.2502966837e+02 1.4948775182e+02 7.9226948730e+01 0.0000e+00 0.0000e+00
       -6  2    1    2    0  504 +5.4290951593e+01 -1.8809809727e+01 -3.3131473724e+02 3.7858666297e+02 1.7394565215e+02 0.0000e+00 0.0000e+00
      -24  2    5    5    0    0 +4.3800722476e+01 -2.2480058054e+01 -3.4291196212e+02 3.6185043716e+02 1.0451444305e+02 0.0000e+00 0.0000e+00
        5  1    3    3  501    0 -3.8022695947e+01 +9.4784515468e+01 -3.0130155603e+02 3.1817376926e+02 4.7000000000e+00 0.0000e+00 -1.0000e+00
      -13  1    4    4    0    0 +2.8742231020e+01 -3.7232572953e+00 -1.0372733134e+02 1.0770022170e+02 0.0000000000e+00 0.0000e+00 1.0000e+00
       14  1    4    4    0    0 -3.1687875141e+01 -1.6979007016e+01 -2.1302337031e+01 4.1787530116e+01 0.0000000000e+00 0.0000e+00 -1.0000e+00
       -5  1    5    5    0  504 +1.0490229118e+01 +3.6702483272e+00 +1.1597224879e+01 1.6736225818e+01 4.7000000000e+00 0.0000e+00 1.0000e+00
       13  1    6    6    0    0 +4.5854607699e+01 +1.6262785770e+01 -6.4729291921e+01 8.0975332546e+01 0.0000000000e+00 0.0000e+00 -1.0000e+00
      -14  1    6    6    0    0 -2.0538852236e+00 -3.8742843824e+01 -2.7818267020e+02 2.8087510461e+02 0.0000000000e+00 0.0000e+00 1.0000e+00
       21  1    1    2  504  505 +6.0961304802e+00 -3.4140936232e+01 -1.0639615743e+01 3.6276269885e+01 0.0000000000e+00 0.0000e+00 -1.0000e+00
       21  1    1    2  505  502 -1.9418742006e+01 -2.1131505197e+01 -7.6304868859e+00 2.9695999446e+01 0.0000000000e+00 0.0000e+00 1.0000e+00
<mgrwt>
<rscale>  4 0.18627093E+03</rscale>
<asrwt>0</asrwt>
<pdfrwt beam="1">  1       21 0.10484953E-01 0.18659084E+03</pdfrwt>
<pdfrwt beam="2">  1       21 0.12985666E+00 0.18659084E+03</pdfrwt>
<totfact> 0.32460141E+04</totfact>
</mgrwt>
</event>
<event>
13      2 +1.4674046e+01 2.26173600e+02 7.54677100e-03 1.12936200e-01
       -2 -1    0    0    0  501 -0.0000000000e+00 +0.0000000000e+00 +6.6729050405e+01 6.6729050405e+01 0.0000000000e+00 0.0000e+00 1.0000e+00
        2 -1    0    0  502    0 +0.0000000000e+00 -0.0000000000e+00 -7.7632801733e+02 7.7632801733e+02 0.0000000000e+00 0.0000e+00 -1.0000e+00
        6  2    1    2  502    0 +1.1915656717e+02 +9.3185184405e+01 -3.9730660114e+02 4.5578843908e+02 1.6434354200e+02 0.0000e+00 0.0000e+00
       24  2    3    3    0    0 +1.3523318449e+02 +7.4309732595e+01 -3.9358814191e+02 4.3028045514e+02 8.0122993454e+01 0.0000e+00 0.0000e+00
       -6  2    1    2    0  501 -1.1915656717e+02 -9.3185184405e+01 -3.1229236579e+02 3.8726862866e+02 1.7195552600e+02 0.0000e+00 0.0000e+00
      -24  2    5    5    0    0 -1.8997386880e+01 -1.2597978577e+01 -1.2385451768e+02 1.5098665638e+02 8.3291170488e+01 0.0000e+00 0.0000e+00
        5  1    3    3  502    0 -1.6076617322e+01 +1.8875451811e+01 -3.7184592348e+00 2.5507983940e+01 4.7000000000e+00 0.0000e+00 -1.0000e+00
      -13  1    4    4    0    0 +2.4921801675e+01 -1.7404815706e+01 -6.6984964617e+01 7.3559562894e+01 0.0000000000e+00 0.0000e+00 1.0000e+00
       14  1    4    4    0    0 +1.1031138281e+02 +9.1714548300e+01 -3.2660317729e+02 3.5672089224e+02 0.0000000000e+00 0.0000e+00 -1.0000e+00
       -5  1    5    5    0  503 +2.6342078036e+00 -2.0977062200e+01 -1.6266229814e+01 2.7086092772e+01 4.7000000000e+00 0.0000e+00 1.0000e+00
       13  1    6    6    0    0 +1.6511879594e+01 -2.5226562025e+01 -1.0421454006e+02 1.0848821115e+02 0.0000000000e+00 0.0000e+00 -1.0000e+00
      -14  1    6    6    0    0 -3.5509266474e+01 +1.2628583448e+01 -1.9639977621e+01 4.2498445223e+01 0.0000000000e+00 0.0000e+00 1.0000e+00
       21  1    5    5  503  501 -1.0279338809e+02 -5.9610143628e+01 -1.7217161829e+02 2.0919587951e+02 0.0000000000e+00 0.0000e+00 1.0000e+00
<mgrwt>
<rscale>  3 0.22617362E+03</rscale>
<asrwt>0</asrwt>
<pdfrwt beam="2">  1        2 0.11943508E+00 0.22617362E+03</pdfrwt>
<pdfrwt beam="1">  1       -2 0.10266008E-01 0.22617362E+03</pdfrwt>
<totfact> 0.23349411E+03</totfact>
</mgrwt>
</event>
<event>
13      2 +1.4674046e+01 1.92782900e+02 7.54677100e-03 1.15630900e-01
       21 -1    0    0  501  502 +0.0000000000e+00 +0.0000000000e+00 +2.4588856673e+02 2.4588856673e+02 0.0000000000e+00 0.0000e+00 -1.0000e+00
       21 -1    0    0  504  503 -0.0000000000e+00 -0.0000000000e+00 -4.1363651377e+02 4.1363651377e+02 0.0000000000e+00 0.0000e+00 -1.0000e+00
        6  2    1    2  501    0 -1.2100188769e+02 -1.1198111097e+02 -2.6976571462e+01 2.4135639078e+02 1.7419513749e+02 0.0000e+00 0.0000e+00
       24  2    3    3    0    0 +1.1157251397e+01 -4.4616763015e+01 +1.4998528377e+01 8.7122826257e+01 7.2458893180e+01 0.0000e+00 0.0000e+00
       -6  2    1    2    0  503 +6.7184250308e+01 -4.1980938327e+01 -1.6715559644e+02 2.5295132432e+02 1.7253189961e+02 0.0000e+00 0.0000e+00
      -24  2    5    5    0    0 +1.3583881366e+01 +3.9136030401e+01 -6.5700375011e+01 1.1235184309e+02 8.1180334203e+01 0.0000e+00 0.0000e+00
        5  1    3    3  501    0 -1.3215913909e+02 -6.7364347959e+01 -4.1975099838e+01 1.5423356453e+02 4.7000000000e+00 0.0000e+00 -1.0000e+00
      -13  1    4    4    0    0 +3.9086115381e+00 -2.3739438088e+01 -2.9123275733e+01 3.7775697933e+01 0.0000000000e+00 0.0000e+00 1.0000e+00
       14  1    4    4    0    0 +7.2486398584e+00 -2.0877324927e+01 +4.4121804110e+01 4.9347128324e+01 0.0000000000e+00 0.0000e+00 -1.0000e+00
       -5  1    5    5    0  503 +5.3600368942e+01 -8.1116968728e+01 -1.0145522143e+02 1.4059948123e+02 4.7000000000e+00 0.0000e+00 1.0000e+00
       13  1    6    6    0    0 +2.3123179926e+01 +1.2260577015e+01 -7.7265409549e+01 8.1577856747e+01 0.0000000000e+00 0.0000e+00 -1.0000e+00
      -14  1    6    6    0    0 -9.5392985606e+00 +2.6875453386e+01 +1.1565034538e+01 3.0773986346e+01 0.0000000000e+00 0.0000e+00 1.0000e+00
       21  1    1    2  504  502 +5.3817637382e+01 +1.5396204930e+02 +2.6384220867e+01 1.6521736540e+02 0.0000000000e+00 0.0000e+00 -1.0000e+00
<mgrwt>
<rscale>  3 0.19240640E+03</rscale>
<asrwt>0</asrwt>
<pdfrwt beam="1">  1       21 0.37829011E-01 0.19278289E+03</pdfrwt>
<pdfrwt beam="2">  1       21 0.63636386E-01 0.19278289E+03</pdfrwt>
<totfact> 0.15380321E+04</totfact>
</mgrwt>
</event>
<event>
13      2 +1.4674046e+01 2.45855400e+02 7.54677100e-03 1.11666100e-01
       21 -1    0    0  501  502 +0.0000000000e+00 +0.0000000000e+00 +8.0292282289e+02 8.0292282289e+02 0.0000000000e+00 0.0000e+00 -1.0000e+00
       21 -1    0    0  502  503 -0.0000000000e+00 -0.0000000000e+00 -1.3935192874e+02 1.3935192874e+02 0.0000000000e+00 0.0000e+00 1.0000e+00
       -6  2    1    2    0  504 +9.3340430522e+01 -1.7759028377e+02 +4.2602383510e+02 5.0053071601e+02 1.6965831761e+02 0.0000e+00 0.0000e+00
      -24  2    3    3    0    0 -8.0589590116e+00 -1.1398419360e+02 +2.8668731674e+02 3.1677999831e+02 7.1432531386e+01 0.0000e+00 0.0000e+00
        6  2    1    2  501    0 -7.9576550615e+01 +1.1766301488e+02 +2.8524282215e+02 3.6392624997e+02 1.7578917871e+02 0.0000e+00 0.0000e+00
       24  2    5    5    0    0 -1.0460987085e+02 +1.1725140588e+02 +1.6565210126e+02 2.4165251172e+02 7.9146702433e+01 0.0000e+00 0.0000e+00
        5  1    5    5  501    0 +2.5033320238e+01 +4.1160900013e-01 +1.1959072089e+02 1.2227373825e+02 4.7000000000e+00 0.0000e+00 -1.0000e+00
      -13  1    6    6    0    0 -3.2949695679e+01 +7.8141186355e+01 +4.5078089682e+01 9.6040416594e+01 0.0000000000e+00 0.0000e+00 1.0000e+00
       14  1    6    6    0    0 -7.1660175174e+01 +3.9110219524e+01 +1.2057401158e+02 1.4561209512e+02 0.0000000000e+00 0.0000e+00 -1.0000e+00
       -5  1    3    3    0  504 +1.0139938953e+02 -6.3606090172e+01 +1.3933651836e+02 1.8375071769e+02 4.7000000000e+00 0.0000e+00 1.0000e+00
       13  1    4    4    0    0 +2.1829136160e+01 -9.8884015532e+01 +2.1394089793e+02 2.3669657268e+02 0.0000000000e+00 0.0000e+00 -1.0000e+00
      -14  1    4    4    0    0 -2.9888095171e+01 -1.5100178067e+01 +7.2746418815e+01 8.0083425632e+01 0.0000000000e+00 0.0000e+00 1.0000e+00
       21  1    1    2  504  503 -1.3763879907e+01 +5.9927268892e+01 -4.7695763096e+01 7.7817785655e+01 0.0000000000e+00 0.0000e+00 1.0000e+00
<mgrwt>
<rscale>  3 0.24476173E+03</rscale>
<asrwt>0</asrwt>
<pdfrwt beam="1">  1       21 0.12352659E+00 0.24585540E+03</pdfrwt>
<pdfrwt beam="2">  1       21 0.21438759E-01 0.24585540E+03</pdfrwt>
<totfact> 0.96112444E+03</totfact>
</mgrwt>
</event>
<event>
13      2 +1.4674046e+01 1.89477600e+02 7.54677100e-03 1.15972200e-01
        2 -1    0    0  503    0 -0.0000000000e+00 +0.0000000000e+00 +1.0989919525e+03 1.0989919525e+03 0.0000000000e+00 0.0000e+00 -1.0000e+00
       21 -1    0    0  501  503 +0.0000000000e+00 -0.0000000000e+00 -1.9812935632e+02 1.9812935632e+02 0.0000000000e+00 0.0000e+00 -1.0000e+00
       -6  2    1    2    0  502 +3.5482528335e+01 -3.9231659991e+01 +1.4308206807e+02 2.2770405011e+02 1.6905183604e+02 0.0000e+00 0.0000e+00
      -24  2    3    3    0    0 +2.2563751756e+01 -2.6197096559e+01 +4.7437210906e+00 8.8074601648e+01 8.0865454949e+01 0.0000e+00 0.0000e+00
        6  2    1    2  501    0 -7.7106420691e+01 +3.9436113577e+01 -9.5150262878e+01 2.1547140303e+02 1.7284023210e+02 0.0000e+00 0.0000e+00
       24  2    5    5    0    0 -9.3565286302e+01 -2.5520984071e+01 -6.2045059702e+01 1.4058239670e+02 8.0672407917e+01 0.0000e+00 0.0000e+00
        5  1    5    5  501    0 +1.6458865611e+01 +6.4957097648e+01 -3.3105203176e+01 7.4889006332e+01 4.7000000000e+00 0.0000e+00 -1.0000e+00
      -13  1    6    6    0    0 -3.2158547329e+01 -5.0143656510e+01 -3.5136351891e+01 6.9160116243e+01 0.0000000000e+00 0.0000e+00 1.0000e+00
       14  1    6    6    0    0 -6.1406738973e+01 +2.4622672439e+01 -2.6908707811e+01 7.1422280455e+01 0.0000000000e+00 0.0000e+00 -1.0000e+00
       -5  1    3    3    0  502 +1.2918776579e+01 -1.3034563432e+01 +1.3833834698e+02 1.3962944846e+02 4.7000000000e+00 0.0000e+00 1.0000e+00
       13  1    4    4    0    0 +3.7627837865e+01 +1.1871725021e+01 -1.5513158959e+01 4.2396345813e+01 0.0000000000e+00 0.0000e+00 -1.0000e+00
      -14  1    4    4    0    0 -1.5064086109e+01 -3.8068821581e+01 +2.0256880049e+01 4.5678255835e+01 0.0000000000e+00 0.0000e+00 1.0000e+00
        2  1    1    2  502    0 +4.1623892355e+01 -2.0445358586e-01 +8.5293079104e+02 8.5394585573e+02 0.0000000000e+00 0.0000e+00 -1.0000e+00
<mgrwt>
<rscale>  3 0.18860934E+03</rscale>
<asrwt>0</asrwt>
<pdfrwt beam="2">  1       21 0.30481440E-01 0.18947760E+03</pdfrwt>
<pdfrwt beam="1">  1        2 0.16907568E+00 0.18947760E+03</pdfrwt>
<totfact> 0.30174855E+03</totfact>
</mgrwt>
</event>
<event>
13      2 +1.4674046e+01 2.26184100e+02 7.54677100e-03 1.12983400e-01
       21 -1    0    0  501  502 +0.0000000000e+00 +0.0000000000e+00 +9.7489242063e+01 9.7489242063e+01 0.0000000000e+00 0.0000e+00 -1.0000e+00
       21 -1    0    0  504  503 -0.0000000000e+00 -0.0000000000e+00 -7.2776457618e+02 7.2776457618e+02 0.0000000000e+00 0.0000e+00 -1.0000e+00
       -6  2    1    2    0  503 +1.2890143664e+01 +1.3427163793e+02 -1.3947050654e+02 2.6307552712e+02 1.7765607848e+02 0.0000e+00 0.0000e+00
      -24  2    3    3    0    0 +5.1385802610e+01 +6.4343580716e+01 -1.5173266732e+01 1.1527923905e+02 7.9236846508e+01 0.0000e+00 0.0000e+00
        6  2    1    2  501    0 +2.1564881605e+01 -1.4170544705e+02 -4.6971423139e+02 5.2110246451e+02 1.7427231995e+02 0.0000e+00 0.0000e+00
       24  2    5    5    0    0 -4.2741700625e+01 -2.9406881479e+01 -2.1755679427e+02 2.3763859125e+02 8.0308926447e+01 0.0000e+00 0.0000e+00
        5  1    5    5  501    0 +6.4306582230e+01 -1.1229856557e+02 -2.5215743713e+02 2.8346387326e+02 4.7000000000e+00 0.0000e+00 -1.0000e+00
      -13  1    6    6    0    0 +7.1003949359e+00 +1.4225937790e+01 -7.8766637212e+00 1.7743583224e+01 0.0000000000e+00 0.0000e+00 1.0000e+00
       14  1    6    6    0    0 -4.9842095561e+01 -4.3632819269e+01 -2.0968013055e+02 2.1989500802e+02 0.0000000000e+00 0.0000e+00 -1.0000e+00
       -5  1    3    3    0  503 -3.8495658946e+01 +6.9928057216e+01 -1.2429723981e+02 1.4779628807e+02 4.7000000000e+00 0.0000e+00 1.0000e+00
       13  1    4    4    0    0 +8.3727506374e-01 +5.7589084498e+01 -2.5924010277e+01 6.3160573079e+01 0.0000000000e+00 0.0000e+00 -1.0000e+00
      -14  1    4    4    0    0 +5.0548527546e+01 +6.7544962174e+00 +1.0750743546e+01 5.2118665975e+01 0.0000000000e+00 0.0000e+00 1.0000e+00
       21  1    1    2  504  502 -3.4455025269e+01 +7.4338091155e+00 -2.1090596186e+01 4.1075826611e+01 0.0000000000e+00 0.0000e+00 -1.0000e+00
<mgrwt>
<rscale>  3 0.22551914E+03</rscale>
<asrwt>0</asrwt>
<pdfrwt beam="1">  1       21 0.14998345E-01 0.22618405E+03</pdfrwt>
<pdfrwt beam="2">  1       21 0.11196378E+00 0.22618405E+03</pdfrwt>
<totfact> 0.24074076E+04</totfact>
</mgrwt>
</event>
<event>
13      2 +1.4674046e+01 2.09047000e+02 7.54677100e-03 1.14541000e-01
       21 -1    0    0  501  503 +0.0000000000e+00 +0.0000000000e+00 +3.6123943280e+02 3.6123943280e+02 0.0000000000e+00 0.0000e+00 1.0000e+00
        2 -1    0    0  503    0 -0.0000000000e+00 -0.0000000000e+00 -1.1715265630e+03 1.1715265630e+03 0.0000000000e+00 0.0000e+00 -1.0000e+00
       -6  2    1    2    0  502 -1.1251787866e+02 +6.7752719565e+01 +6.1626274043e+01 2.1322759850e+02 1.5626102228e+02 0.0000e+00 0.0000e+00
      -24  2    3    3    0    0 -1.1307519223e+02 +6.0071554110e+00 +2.5526022953e+01 1.4154675434e+02 8.1005066521e+01 0.0000e+00 0.0000e+00
        6  2    1    2  501    0 +9.0072213344e+01 -5.4621373262e+01 +1.7723682502e+02 2.7006593757e+02 1.7443113387e+02 0.0000e+00 0.0000e+00
       24  2    5    5    0    0 +3.1235384434e+01 +3.3485339875e+01 +1.1168489480e+02 1.4539151802e+02 8.1044805870e+01 0.0000e+00 0.0000e+00
        5  1    5    5  501    0 +5.8836828910e+01 -8.8106713136e+01 +6.5551930213e+01 1.2467441955e+02 4.7000000000e+00 0.0000e+00 -1.0000e+00
      -13  1    6    6    0    0 -2.2640404850e+01 -6.1696840284e+00 +4.5994017417e+01 5.1634315828e+01 0.0000000000e+00 0.0000e+00 1.0000e+00
       14  1    6    6    0    0 +5.3875789284e+01 +3.9655023903e+01 +6.5690877385e+01 9.3757202195e+01 0.0000000000e+00 0.0000e+00 -1.0000e+00
       -5  1    3    3    0  502 +5.5731356735e-01 +6.1745564154e+01 +3.6100251089e+01 7.1680844162e+01 4.7000000000e+00 0.0000e+00 1.0000e+00
       13  1    4    4    0    0 -9.0234834893e+01 +4.7175899691e+00 +5.3811689909e+01 1.0516786132e+02 0.0000000000e+00 0.0000e+00 -1.0000e+00
      -14  1    4    4    0    0 -2.2840357339e+01 +1.2895654418e+00 -2.8285666956e+01 3.6378893023e+01 0.0000000000e+00 0.0000e+00 1.0000e+00
        2  1    1    2  502    0 +2.2445665321e+01 -1.3131346303e+01 -1.0491502292e+03 1.0494724597e+03 0.0000000000e+00 0.0000e+00 -1.0000e+00
<mgrwt>
<rscale>  3 0.20521735E+03</rscale>
<asrwt>0</asrwt>
<pdfrwt beam="1">  1       21 0.55575298E-01 0.20904703E+03</pdfrwt>
<pdfrwt beam="2">  1        2 0.18023485E+00 0.20904703E+03</pdfrwt>
<totfact> 0.80020842E+02</totfact>
</mgrwt>
</event>
<event>
14      3 +1.4674046e+01 2.35350800e+02 7.54677100e-03 1.12294700e-01
        2 -1    0    0  503    0 -0.0000000000e+00 +0.0000000000e+00 +2.3271642843e+03 2.3271642843e+03 0.0000000000e+00 0.0000e+00 1.0000e+00
       21 -1    0    0  504  503 +0.0000000000e+00 -0.0000000000e+00 -1.5551447446e+03 1.5551447446e+03 0.0000000000e+00 0.0000e+00 1.0000e+00
       -6  2    1    2    0  502 -9.6384325760e+01 -6.6697830913e+01 -1.0138439343e+03 1.0350326570e+03 1.7226299426e+02 0.0000e+00 0.0000e+00
      -24  2    3    3    0    0 -1.2463371947e+02 -6.2043923327e+01 -6.3478187666e+02 6.5486187881e+02 8.0703388624e+01 0.0000e+00 0.0000e+00
        6  2    1    2  501    0 +1.7213743357e+02 +1.6352308693e+02 -5.2916586636e+01 2.9798728315e+02 1.7211960894e+02 0.0000e+00 0.0000e+00
       24  2    5    5    0    0 +1.3415390165e+02 +1.7333855562e+02 -8.3871275598e+01 2.4779390818e+02 7.9522989552e+01 0.0000e+00 0.0000e+00
        5  1    5    5  501    0 +3.7983531917e+01 -9.8154686875e+00 +3.0954688961e+01 5.0193374972e+01 4.7000000000e+00 0.0000e+00 -1.0000e+00
      -13  1    6    6    0    0 +1.3635094528e+02 +1.4281469385e+02 -5.3261717465e+01 2.0451021394e+02 0.0000000000e+00 0.0000e+00 1.0000e+00
       14  1    6    6    0    0 -2.1970436261e+00 +3.0523861768e+01 -3.0609558133e+01 4.3283694239e+01 0.0000000000e+00 0.0000e+00 -1.0000e+00
       -5  1    3    3    0  502 +2.8249393714e+01 -4.6539075859e+00 -3.7906205759e+02 3.8017077822e+02 4.7000000000e+00 0.0000e+00 1.0000e+00
       13  1    4    4    0    0 -3.8542115663e+01 -2.7676866177e+01 -8.5242914340e+01 9.7559510281e+01 0.0000000000e+00 0.0000e+00 -1.0000e+00
      -14  1    4    4    0    0 -8.6091603812e+01 -3.4367057150e+01 -5.4953896232e+02 5.5730236853e+02 0.0000000000e+00 0.0000e+00 1.0000e+00
       21  1    1    2  504  501 -4.3526305980e+01 -8.1947807702e+00 -3.5285601603e+02 3.5562488916e+02 0.0000000000e+00 0.0000e+00 1.0000e+00
        2  1    1    2  502    0 -3.2226801826e+01 -8.8630475247e+01 +2.1916360767e+03 2.1936641996e+03 0.0000000000e+00 0.0000e+00 1.0000e+00
<mgrwt>
<rscale>  4 0.23532459E+03</rscale>
<asrwt>0</asrwt>
<pdfrwt beam="2">  1       21 0.23925304E+00 0.23535082E+03</pdfrwt>
<pdfrwt beam="1">  1        2 0.35802528E+00 0.23535082E+03</pdfrwt>
<totfact> 0.46870382E+00</totfact>
</mgrwt>
</event>
<event>
12      1 +1.4674046e+01 1.86218100e+02 7.54677100e-03 1.16194100e-01
       21 -1    0    0  503  502 +0.0000000000e+00 +0.0000000000e+00 +1.0752889363e+03 1.0752889363e+03 0.0000000000e+00 0.0000e+00 -1.0000e+00
       21 -1    0    0  501  503 -0.0000000000e+00 -0.0000000000e+00 -4.0189303402e+01 4.0189303402e+01 0.0000000000e+00 0.0000e+00 -1.0000e+00
        6  2    1    2  501    0 +6.0128743035e+01 -3.2694751043e+01 +2.6925716442e+02 3.2732096792e+02 1.7307565676e+02 0.0000e+00 0.0000e+00
       24  2    3    3    0    0 +6.0812780523e+01 -6.8899424088e+00 +2.8099777010e+02 2.9857574436e+02 8.0262461550e+01 0.0000e+00 0.0000e+00
       -6  2    1    2    0  502 -6.0128743035e+01 +3.2694751043e+01 +7.6584246846e+02 7.8815727177e+02 1.7318425465e+02 0.0000e+00 0.0000e+00
      -24  2    5    5    0    0 -9.7713569013e+00 +5.4772504682e+01 +6.7340288305e+02 6.8049827077e+02 8.0690438984e+01 0.0000e+00 0.0000e+00
        5  1    3    3  501    0 -6.8403748791e-01 -2.5804808635e+01 -1.1740605679e+01 2.8745223563e+01 4.7000000000e+00 0.0000e+00 -1.0000e+00
      -13  1    4    4    0    0 +5.3925930055e+01 +2.9972402401e+01 +2.0038267243e+02 2.0966536731e+02 0.0000000000e+00 0.0000e+00 1.0000e+00
       14  1    4    4    0    0 +6.8868504682e+00 -3.6862344810e+01 +8.0615097670e+01 8.8910377046e+01 0.0000000000e+00 0.0000e+00 -1.0000e+00
       -5  1    5    5    0  502 -5.0357386134e+01 -2.2077753638e+01 +9.2439585414e+01 1.0765900100e+02 4.7000000000e+00 0.0000e+00 1.0000e+00
       13  1    6    6    0    0 +1.8878274563e+01 +5.1316922231e+01 +2.4062698909e+02 2.4676134956e+02 0.0000000000e+00 0.0000e+00 -1.0000e+00
      -14  1    6    6    0    0 -2.8649631464e+01 +3.4555824505e+00 +4.3277589396e+02 4.3373692122e+02 0.0000000000e+00 0.0000e+00 1.0000e+00
<mgrwt>
<rscale>  2 0.18619289E+03</rscale>
<asrwt>0</asrwt>
<pdfrwt beam="1">  1       21 0.16542905E+00 0.18621815E+03</pdfrwt>
<pdfrwt beam="2">  1       21 0.61829706E-02 0.18621815E+03</pdfrwt>
<totfact> 0.43228115E+04</totfact>
</mgrwt>
</event>
<event>
12      1 +1.4674046e+01 2.17734100e+02 7.54677100e-03 1.13558400e-01
        2 -1    0    0  502    0 +0.0000000000e+00 +0.0000000000e+00 +2.7928424630e+03 2.7928424630e+03 0.0000000000e+00 0.0000e+00 -1.0000e+00
       -2 -1    0    0    0  501 -0.0000000000e+00 -0.0000000000e+00 -1.7146279484e+01 1.7146279484e+01 0.0000000000e+00 0.0000e+00 1.0000e+00
        6  2    1    2  502    0 +7.8087399025e+01 -1.0709864141e+02 +1.5197112374e+03 1.5350430809e+03 1.7107674974e+02 0.0000e+00 0.0000e+00
       24  2    3    3    0    0 +1.1345833993e+02 -5.2175922398e+01 +9.8887756386e+02 1.0001841392e+03 8.3032248569e+01 0.0000e+00 0.0000e+00
       -6  2    1    2    0  501 -7.8087399025e+01 +1.0709864141e+02 +1.2559849462e+03 1.2749456616e+03 1.7441471902e+02 0.0000e+00 0.0000e+00
      -24  2    5    5    0    0 -3.6312767848e+01 +1.3078981482e+02 +1.1102015430e+03 1.1213836802e+03 8.0804079775e+01 0.0000e+00 0.0000e+00
        5  1    3    3  502    0 -3.5370940906e+01 -5.4922719015e+01 +5.3083367350e+02 5.3485894163e+02 4.7000000000e+00 0.0000e+00 -1.0000e+00
      -13  1    4    4    0    0 +3.1870645753e+01 -5.2504128391e+01 +2.8184909652e+02 2.8846374948e+02 0.0000000000e+00 0.0000e+00 1.0000e+00
       14  1    4    4    0    0 +8.1587694179e+01 +3.2820599342e-01 +7.0702846734e+02 7.1172038975e+02 0.0000000000e+00 0.0000e+00 -1.0000e+00
       -5  1    5    5    0  501 -4.1774631178e+01 -2.3691173412e+01 +1.4578340319e+02 1.5356198147e+02 4.7000000000e+00 0.0000e+00 1.0000e+00
       13  1    6    6    0    0 -4.4997279444e+01 +6.1768653960e+01 +3.6336337056e+02 3.7131261874e+02 0.0000000000e+00 0.0000e+00 -1.0000e+00
      -14  1    6    6    0    0 +8.6845115968e+00 +6.9021160864e+01 +7.4683817242e+02 7.5007106141e+02 0.0000000000e+00 0.0000e+00 1.0000e+00
<mgrwt>
<rscale>  2 0.21773408E+03</rscale>
<asrwt>0</asrwt>
<pdfrwt beam="1">  1        2 0.42966771E+00 0.21773408E+03</pdfrwt>
<pdfrwt beam="2">  1       -2 0.26378914E-02 0.21773408E+03</pdfrwt>
<totfact> 0.14224039E+03</totfact>
</mgrwt>
</event>
<event>
13      2 +1.4674046e+01 1.92608600e+02 7.54677100e-03 1.15621700e-01
       21 -1    0    0  504  502 +0.0000000000e+00 +0.0000000000e+00 +2.9855689129e+02 2.9855689129e+02 0.0000000000e+00 0.0000e+00 -1.0000e+00
       21 -1    0    0  501  503 -0.0000000000e+00 -0.0000000000e+00 -6.4217803675e+02 6.4217803675e+02 0.0000000000e+00 0.0000e+00 -1.0000e+00
        6  2    1    2  501    0 -7.8356730712e+01 +7.6911701746e+01 +9.8851882462e+01 2.2681496977e+02 1.7209924094e+02 0.0000e+00 0.0000e+00
       24  2    3    3    0    0 -1.1942521814e+02 +6.5649461230e+01 +9.3603804629e+01 1.8365143143e+02 7.9962125655e+01 0.0000e+00 0.0000e+00
       -6  2    1    2    0  502 +7.6695030064e+01 +1.8917915015e+00 +6.6079820359e+01 1.9929509365e+02 1.7165746468e+02 0.0000e+00 0.0000e+00
      -24  2    5    5    0    0 +3.5490072718e+01 +6.4836701279e+01 +4.0192166426e+01 1.1959458673e+02 8.4994775361e+01 0.0000e+00 0.0000e+00
        5  1    3    3  501    0 +4.1068487425e+01 +1.1262240516e+01 +5.2480778327e+00 4.3163538337e+01 4.7000000000e+00 0.0000e+00 -1.0000e+00
      -13  1    4    4    0    0 -8.9518058019e+01 +7.1812220910e+00 +3.7667387292e+01 9.7385238756e+01 0.0000000000e+00 0.0000e+00 1.0000e+00
       14  1    4    4    0    0 -2.9907160118e+01 +5.8468239139e+01 +5.5936417337e+01 8.6266192676e+01 0.0000000000e+00 0.0000e+00 -1.0000e+00
       -5  1    5    5    0  502 +4.1204957346e+01 -6.2944909777e+01 +2.5887653934e+01 7.9700506917e+01 4.7000000000e+00 0.0000e+00 1.0000e+00
       13  1    6    6    0    0 +4.1572138480e+01 -4.7265295071e-01 -1.9684181546e+00 4.1621397966e+01 0.0000000000e+00 0.0000e+00 -1.0000e+00
      -14  1    6    6    0    0 -6.0820657616e+00 +6.5309354229e+01 +4.2160584580e+01 7.7973188763e+01 0.0000000000e+00 0.0000e+00 1.0000e+00
       21  1    1    2  504  503 +1.6617006481e+00 -7.8803493247e+01 -5.0855284828e+02 5.1462486462e+02 0.0000000000e+00 0.0000e+00 -1.0000e+00
<mgrwt>
<rscale>  3 0.19250985E+03</rscale>
<asrwt>0</asrwt>
<pdfrwt beam="1">  1       21 0.45931830E-01 0.19260859E+03</pdfrwt>
<pdfrwt beam="2">  1       21 0.98796620E-01 0.19260859E+03</pdfrwt>
<totfact> 0.38384122E+03</totfact>
</mgrwt>
</event>
<event>
13      3 +1.4674046e+01 6.32554900e+02 7.54677100e-03 9.96910300e-02
        1 -1    0    0  502    0 -0.0000000000e+00 +0.0000000000e+00 +1.6235109014e+03 1.6235109014e+03 0.0000000000e+00 0.0000e+00 1.0000e+00
        2 -1    0    0  501    0 +0.0000000000e+00 -0.0000000000e+00 -2.6653567769e+03 2.6653567769e+03 0.0000000000e+00 0.0000e+00 1.0000e+00
        6  2    1    2  501    0 +2.8452898714e+02 +3.0434899487e+02 +6.7016842857e+01 4.5680081522e+02 1.7490189353e+02 0.0000e+00 0.0000e+00
       24  2    3    3    0    0 +2.2358018872e+02 +2.4689716088e+02 -1.0393620341e+01 3.4265205671e+02 7.9725126431e+01 0.0000e+00 0.0000e+00
      -24  2    1    2    0    0 +4.8433776465e+01 +1.1808254728e+02 +3.7486936992e+01 1.5536626170e+02 8.0275065577e+01 0.0000e+00 0.0000e+00
        5  1    3    3  501    0 +6.0948798419e+01 +5.7451833991e+01 +7.7410463198e+01 1.1414875851e+02 4.7000000000e+00 0.0000e+00 -1.0000e+00
      -13  1    4    4    0    0 +2.7560207757e+01 +1.0102109926e+01 -1.9285499448e+01 3.5121904355e+01 0.0000000000e+00 0.0000e+00 1.0000e+00
       14  1    4    4    0    0 +1.9601998097e+02 +2.3679505095e+02 +8.8918791065e+00 3.0753015235e+02 0.0000000000e+00 0.0000e+00 -1.0000e+00
       -5  1    1    2    0  503 -3.3523828521e+02 -2.9594901052e+02 +3.2396620813e+02 5.5221981014e+02 4.7000000000e+00 0.0000e+00 1.0000e+00
       13  1    5    5    0    0 -2.0502537043e+01 +4.2223824654e+01 +2.1486645712e+01 5.1622488680e+01 0.0000000000e+00 0.0000e+00 -1.0000e+00
      -14  1    5    5    0    0 +6.8936313507e+01 +7.5858722631e+01 +1.6000291280e+01 1.0374377302e+02 0.0000000000e+00 0.0000e+00 1.0000e+00
        2  1    1    2  502    0 +3.9935035892e+01 -1.1724453497e+02 -2.2952731961e+03 2.2986126539e+03 0.0000000000e+00 0.0000e+00 1.0000e+00
        1  1    1    2  503    0 -3.7659514293e+01 -9.2379966555e+00 +8.2495733266e+02 8.2586813737e+02 0.0000000000e+00 0.0000e+00 1.0000e+00
<mgrwt>
<rscale>  4 0.57026005E+03</rscale>
<asrwt>0</asrwt>
<pdfrwt beam="2">  1        2 0.41005489E+00 0.63255487E+03</pdfrwt>
<pdfrwt beam="1">  1        1 0.24977091E+00 0.63255487E+03</pdfrwt>
<totfact> 0.22259672E+00</totfact>
</mgrwt>
</event>
<event>
12      1 +1.4674046e+01 2.30585300e+02 7.54677100e-03 1.12643300e-01
       21 -1    0    0  503  502 +0.0000000000e+00 +0.0000000000e+00 +3.3428571765e+02 3.3428571765e+02 0.0000000000e+00 0.0000e+00 1.0000e+00
       21 -1    0    0  501  503 -0.0000000000e+00 -0.0000000000e+00 -1.5878688268e+02 1.5878688268e+02 0.0000000000e+00 0.0000e+00 1.0000e+00
        6  2    1    2  501    0 -2.2773925344e+01 +1.5139226335e+02 +1.0184396614e+02 2.5100936037e+02 1.7086613613e+02 0.0000e+00 0.0000e+00
       24  2    3    3    0    0 +2.9432316274e+01 +5.4124105858e+01 +7.5488278413e+00 1.0575011202e+02 8.5617879638e+01 0.0000e+00 0.0000e+00
       -6  2    1    2    0  502 +2.2773925344e+01 -1.5139226335e+02 +7.3654868826e+01 2.4206323996e+02 1.7242767573e+02 0.0000e+00 0.0000e+00
      -24  2    5    5    0    0 +6.6676889247e+01 -1.4219474830e+02 +8.7147197450e+01 1.9498673356e+02 7.5894915765e+01 0.0000e+00 0.0000e+00
        5  1    3    3  501    0 -5.2206241618e+01 +9.7268157497e+01 +9.4295138296e+01 1.4525924836e+02 4.7000000000e+00 0.0000e+00 -1.0000e+00
      -13  1    4    4    0    0 -1.7952652083e+01 -9.0542285482e+00 -1.3254585666e+01 2.4082375560e+01 0.0000000000e+00 0.0000e+00 1.0000e+00
       14  1    4    4    0    0 +4.7384968358e+01 +6.3178334406e+01 +2.0803413508e+01 8.1667736458e+01 0.0000000000e+00 0.0000e+00 -1.0000e+00
       -5  1    5    5    0  502 -4.3902963903e+01 -9.1975150554e+00 -1.3492328624e+01 4.7076506395e+01 4.7000000000e+00 0.0000e+00 1.0000e+00
       13  1    6    6    0    0 +4.0477471774e+01 -1.4247381374e+01 +1.3164989184e+01 4.4885749826e+01 0.0000000000e+00 0.0000e+00 -1.0000e+00
      -14  1    6    6    0    0 +2.6199417473e+01 -1.2794736693e+02 +7.3982208266e+01 1.5010098374e+02 0.0000000000e+00 0.0000e+00 1.0000e+00
<mgrwt>
<rscale>  2 0.23029339E+03</rscale>
<asrwt>0</asrwt>
<pdfrwt beam="1">  1       21 0.51428572E-01 0.23058528E+03</pdfrwt>
<pdfrwt beam="2">  1       21 0.24428751E-01 0.23058528E+03</pdfrwt>
<totfact> 0.55902228E+04</totfact>
</mgrwt>
</event>
<event>
13      2 +1.4674046e+01 3.05215900e+02 7.54677100e-03 1.08408400e-01
       21 -1    0    0  504  502 +0.0000000000e+00 +0.0000000000e+00 +9.2062868073e+02 9.2062868073e+02 0.0000000000e+00 0.0000e+00 1.0000e+00
       21 -1    0    0  501  503 -0.0000000000e+00 -0.0000000000e+00 -4.1990793879e+02 4.1990793879e+02 0.0000000000e+00 0.0000e+00 -1.0000e+00
        6  2    1    2  501    0 +2.1606231826e+02 -1.1880677285e+02 +7.8291280175e+02 8.3887231168e+02 1.7307895747e+02 0.0000e+00 0.0000e+00
       24  2    3    3    0    0 +2.1261292341e+02 -1.4804047082e+02 +7.1686415959e+02 7.6640838581e+02 7.9795703762e+01 0.0000e+00 0.0000e+00
       -6  2    1    2    0  502 -2.6786853529e+02 +1.5832979463e+02 -2.5910626064e+02 4.3253466516e+02 1.5207993358e+02 0.0000e+00 0.0000e+00
      -24  2    5    5    0    0 -8.0241606848e+01 +6.1244266970e+01 -1.3745953981e+02 1.8871202748e+02 8.0793121761e+01 0.0000e+00 0.0000e+00
        5  1    3    3  501    0 +3.4493948544e+00 +2.9233697967e+01 +6.6048642156e+01 7.2463925869e+01 4.7000000000e+00 0.0000e+00 -1.0000e+00
      -13  1    4    4    0    0 +1.2043320575e+02 -1.0022695575e+02 +3.2169229485e+02 3.5782053081e+02 0.0000000000e+00 0.0000e+00 1.0000e+00
       14  1    4    4    0    0 +9.2179717661e+01 -4.7813515071e+01 +3.9517186474e+02 4.0858785500e+02 0.0000000000e+00 0.0000e+00 -1.0000e+00
       -5  1    5    5    0  502 -1.8762692844e+02 +9.7085527663e+01 -1.2164672083e+02 2.4382263768e+02 4.7000000000e+00 0.0000e+00 1.0000e+00
       13  1    6    6    0    0 -7.8496794296e+01 +2.4213191980e+01 -5.6595488960e+01 9.9755073812e+01 0.0000000000e+00 0.0000e+00 -1.0000e+00
      -14  1    6    6    0    0 -1.7448125527e+00 +3.7031074990e+01 -8.0864050850e+01 8.8956953667e+01 0.0000000000e+00 0.0000e+00 1.0000e+00
       21  1    1    2  504  503 +5.1806217027e+01 -3.9523021781e+01 -2.3085799179e+01 6.9129642680e+01 0.0000000000e+00 0.0000e+00 -1.0000e+00
<mgrwt>
<rscale>  3 0.30232549E+03</rscale>
<asrwt>0</asrwt>
<pdfrwt beam="1">  1       21 0.14163518E+00 0.30521589E+03</pdfrwt>
<pdfrwt beam="2">  1       21 0.64601222E-01 0.30521589E+03</pdfrwt>
<totfact> 0.69622153E+02</totfact>
</mgrwt>
</event>
<event>
13      2 +1.4674046e+01 2.94117600e+02 7.54677100e-03 1.08822200e-01
       21 -1    0    0  501  502 +0.0000000000e+00 +0.0000000000e+00 +3.9557576512e+02 3.9557576512e+02 0.0000000000e+00 0.0000e+00 1.0000e+00
       21 -1    0    0  504  503 -0.0000000000e+00 -0.0000000000e+00 -4.1409751448e+02 4.1409751448e+02 0.0000000000e+00 0.0000e+00 -1.0000e+00
        6  2    1    2  501    0 +2.1540209174e+02 -3.7227279443e+01 +8.8903443676e+01 2.9234952771e+02 1.7257025407e+02 0.0000e+00 0.0000e+00
       24  2    3    3    0    0 +1.6974148534e+02 -8.9852676706e+01 +6.2233607701e+01 2.1759865102e+02 8.1181744517e+01 0.0000e+00 0.0000e+00
       -6  2    1    2    0  503 -2.4038305255e+02 +5.0368285792e+01 -2.3839911568e+02 3.8334277241e+02 1.7261682025e+02 0.0000e+00 0.0000e+00
      -24  2    5    5    0    0 -2.3135981092e+02 +7.8870341202e+01 -1.6992320401e+02 3.0847738300e+02 8.0848671789e+01 0.0000e+00 0.0000e+00
        5  1    3    3  501    0 +4.5660606400e+01 +5.2625397263e+01 +2.6669835974e+01 7.4750876682e+01 4.7000000000e+00 0.0000e+00 -1.0000e+00
      -13  1    4    4    0    0 +5.4740577645e+01 -6.8904192097e+00 +5.1362930125e+01 7.5380098891e+01 0.0000000000e+00 0.0000e+00 1.0000e+00
       14  1    4    4    0    0 +1.1500090770e+02 -8.2962257496e+01 +1.0870677577e+01 1.4221855213e+02 0.0000000000e+00 0.0000e+00 -1.0000e+00
       -5  1    5    5    0  503 -9.0232416265e+00 -2.8502055410e+01 -6.8475911670e+01 7.4865389407e+01 4.7000000000e+00 0.0000e+00 1.0000e+00
       13  1    6    6    0    0 -1.2983527766e+02 +7.9930495999e+01 -7.6838341816e+01 1.7073433834e+02 0.0000000000e+00 0.0000e+00 -1.0000e+00
      -14  1    6    6    0    0 -1.0152453326e+02 -1.0601547968e+00 -9.3084862192e+01 1.3774304466e+02 0.0000000000e+00 0.0000e+00 1.0000e+00
       21  1    1    2  504  502 +2.4980960809e+01 -1.3141006349e+01 +1.3097392264e+02 1.3398097949e+02 0.0000000000e+00 0.0000e+00 1.0000e+00
<mgrwt>
<rscale>  3 0.29411072E+03</rscale>
<asrwt>0</asrwt>
<pdfrwt beam="1">  1       21 0.60857810E-01 0.29411755E+03</pdfrwt>
<pdfrwt beam="2">  1       21 0.63707310E-01 0.29411755E+03</pdfrwt>
<totfact> 0.53663162E+03</totfact>
</mgrwt>
</event>
<event>
14      3 +1.4674046e+01 1.82778800e+02 7.54677100e-03 1.16586400e-01
       21 -1    0    0  504  502 +0.0000000000e+00 +0.0000000000e+00 +1.8097841013e+02 1.8097841013e+02 0.0000000000e+00 0.0000e+00 -1.0000e+00
       21 -1    0    0  505  503 -0.0000000000e+00 -0.0000000000e+00 -8.4138669773e+02 8.4138669773e+02 0.0000000000e+00 0.0000e+00 -1.0000e+00
        6  2    1    2  501    0 +1.1821265059e+02 -6.2234817103e+01 -2.0273566078e+02 2.9792704448e+02 1.7265970133e+02 0.0000e+00 0.0000e+00
       24  2    3    3    0    0 +8.8612547445e+01 -1.0236528014e+02 -1.0629255637e+02 1.8925330083e+02 7.8663016684e+01 0.0000e+00 0.0000e+00
       -6  2    1    2    0  502 +1.8217777028e+00 -3.8330882516e+01 -1.3523158234e+02 2.2509419244e+02 1.7580454823e+02 0.0000e+00 0.0000e+00
      -24  2    5    5    0    0 +3.9971320290e+01 -6.3993056842e+01 -1.4547545321e+02 1.7775539565e+02 6.8855322419e+01 0.0000e+00 0.0000e+00
        5  1    3    3  501    0 +2.9600103144e+01 +4.0130463040e+01 -9.6443104413e+01 1.0867374365e+02 4.7000000000e+00 0.0000e+00 -1.0000e+00
      -13  1    4    4    0    0 +1.2913999142e+01 -2.5818481781e+01 +1.0215507382e+01 3.0622246266e+01 0.0000000000e+00 0.0000e+00 1.0000e+00
       14  1    4    4    0    0 +7.5698548303e+01 -7.6546798361e+01 -1.1650806375e+02 1.5863105457e+02 0.0000000000e+00 0.0000e+00 -1.0000e+00
       -5  1    5    5    0  502 -3.8149542587e+01 +2.5662174326e+01 +1.0243870877e+01 4.7338796788e+01 4.7000000000e+00 0.0000e+00 1.0000e+00
       13  1    6    6    0    0 +3.6754463906e+01 -5.1388508578e+01 -4.7817855682e+01 7.9235198952e+01 0.0000000000e+00 0.0000e+00 -1.0000e+00
      -14  1    6    6    0    0 +3.2168563839e+00 -1.2604548264e+01 -9.7657597532e+01 9.8520196699e+01 0.0000000000e+00 0.0000e+00 1.0000e+00
       21  1    1    2  504  503 -3.5748219417e+00 +4.2994149571e+01 +7.2068270405e+01 8.3994713217e+01 0.0000000000e+00 0.0000e+00 -1.0000e+00
       21  1    1    2  505  501 -1.1645960635e+02 +5.7571550048e+01 -3.9450931489e+02 4.1534915772e+02 0.0000000000e+00 0.0000e+00 -1.0000e+00
<mgrwt>
<rscale>  4 0.18201839E+03</rscale>
<asrwt>0</asrwt>
<pdfrwt beam="1">  1       21 0.27842832E-01 0.18277882E+03</pdfrwt>
<pdfrwt beam="2">  1       21 0.12944411E+00 0.18277882E+03</pdfrwt>
<totfact> 0.54254444E+03</totfact>
</mgrwt>
</event>
<event>
13      2 +1.4674046e+01 2.43932100e+02 7.54677100e-03 1.11720100e-01
        2 -1    0    0  501    0 -0.0000000000e+00 +0.0000000000e+00 +5.5776329857e+02 5.5776329857e+02 0.0000000000e+00 0.0000e+00 1.0000e+00
       21 -1    0    0  502  503 +0.0000000000e+00 -0.0000000000e+00 -3.0171236762e+02 3.0171236762e+02 0.0000000000e+00 0.0000e+00 1.0000e+00
        6  2    1    2  501    0 +7.3290541711e+01 +5.4140532596e+01 +5.7966796931e+01 2.0657733442e+02 1.7610038267e+02 0.0000e+00 0.0000e+00
       24  2    3    3    0    0 +2.0116179811e+00 -1.8425137031e+00 +8.1718717031e+01 1.1276352867e+02 7.7654511920e+01 0.0000e+00 0.0000e+00
       -6  2    1    2    0  503 -2.3573715930e+02 -2.9949021164e+01 +3.3055423017e+02 4.4189487407e+02 1.7186049139e+02 0.0000e+00 0.0000e+00
      -24  2    5    5    0    0 -2.0601823840e+02 -7.2875361760e+01 +3.0538854633e+02 3.8374604244e+02 7.9022325665e+01 0.0000e+00 0.0000e+00
        5  1    3    3  501    0 +7.1278923729e+01 +5.5983046299e+01 -2.3751920100e+01 9.3813805751e+01 4.7000000000e+00 0.0000e+00 -1.0000e+00
      -13  1    4    4    0    0 -2.3415167845e+01 -3.1044581820e+01 +4.3761088618e+01 5.8541173738e+01 0.0000000000e+00 0.0000e+00 1.0000e+00
       14  1    4    4    0    0 +2.5426785826e+01 +2.9202068117e+01 +3.7957628412e+01 5.4222354933e+01 0.0000000000e+00 0.0000e+00 -1.0000e+00
       -5  1    5    5    0  503 -2.9718920895e+01 +4.2926340596e+01 +2.5165683833e+01 5.8148831622e+01 4.7000000000e+00 0.0000e+00 1.0000e+00
       13  1    6    6    0    0 -4.2659993671e+01 -1.8153615050e+01 +1.2946336330e+02 1.3751433102e+02 0.0000000000e+00 0.0000e+00 -1.0000e+00
      -14  1    6    6    0    0 -1.6335824473e+02 -5.4721746710e+01 +1.7592518304e+02 2.4623171143e+02 0.0000000000e+00 0.0000e+00 1.0000e+00
        2  1    1    2  502    0 +1.6244661759e+02 -2.4191511433e+01 -1.3247009615e+02 2.1100345771e+02 0.0000000000e+00 0.0000e+00 1.0000e+00
<mgrwt>
<rscale>  3 0.24393214E+03</rscale>
<asrwt>0</asrwt>
<pdfrwt beam="2">  1       21 0.46417287E-01 0.24393214E+03</pdfrwt>
<pdfrwt beam="1">  1        2 0.85809738E-01 0.24393214E+03</pdfrwt>
<totfact> 0.30074749E+03</totfact>
</mgrwt>
</event>
<event>
14      3 +1.4674046e+01 5.06275500e+02 7.54677100e-03 1.01215700e-01
        2 -1    0    0  504    0 -0.0000000000e+00 +0.0000000000e+00 +2.1504336892e+03 2.1504336892e+03 0.0000000000e+00 0.0000e+00 1.0000e+00
       21 -1    0    0  501  503 +0.0000000000e+00 -0.0000000000e+00 -9.7750143618e+02 9.7750143618e+02 0.0000000000e+00 0.0000e+00 1.0000e+00
        6  2    1    2  501    0 +1.4110183176e+02 -4.4542803754e+02 -5.5780714807e+02 7.4791773665e+02 1.7296318335e+02 0.0000e+00 0.0000e+00
       24  2    3    3    0    0 +3.6493547177e+01 -2.0142354664e+02 -1.7201767869e+02 2.7958378585e+02 8.1693251867e+01 0.0000e+00 0.0000e+00
       -6  2    1    2    0  502 +4.4389995641e+00 +5.0872167440e+02 +6.0857901900e+01 5.4072963643e+02 1.7282189898e+02 0.0000e+00 0.0000e+00
      -24  2    5    5    0    0 +4.7001041022e+01 +2.3783007683e+02 -1.5475166933e+01 2.5604979449e+02 8.0930668888e+01 0.0000e+00 0.0000e+00
        5  1    3    3  501    0 +1.0460828458e+02 -2.4400449089e+02 -3.8578946938e+02 4.6833395079e+02 4.7000000000e+00 0.0000e+00 -1.0000e+00
      -13  1    4    4    0    0 +4.4526765618e+01 -1.4042720324e+02 -7.6575781165e+01 1.6603096858e+02 0.0000000000e+00 0.0000e+00 1.0000e+00
       14  1    4    4    0    0 -8.0332184410e+00 -6.0996343404e+01 -9.5441897526e+01 1.1355281727e+02 0.0000000000e+00 0.0000e+00 -1.0000e+00
       -5  1    5    5    0  502 -4.2562041458e+01 +2.7089159757e+02 +7.6333068833e+01 2.8467984193e+02 4.7000000000e+00 0.0000e+00 1.0000e+00
       13  1    6    6    0    0 -2.3021468820e+01 +7.0299096016e+01 -6.3536790730e+00 7.4245000943e+01 0.0000000000e+00 0.0000e+00 -1.0000e+00
      -14  1    6    6    0    0 +7.0022509843e+01 +1.6753098081e+02 -9.1214878602e+00 1.8180479355e+02 0.0000000000e+00 0.0000e+00 1.0000e+00
       21  1    1    2  504  503 -3.6740375280e+01 -1.3565788969e+01 -7.8019506695e+01 8.7297933715e+01 0.0000000000e+00 0.0000e+00 1.0000e+00
        2  1    1    2  502    0 -1.0880045604e+02 -4.9727847893e+01 +1.7479010059e+03 1.7519898186e+03 0.0000000000e+00 0.0000e+00 1.0000e+00
<mgrwt>
<rscale>  4 0.50626345E+03</rscale>
<asrwt>0</asrwt>
<pdfrwt beam="2">  1       21 0.15038484E+00 0.50627551E+03</pdfrwt>
<pdfrwt beam="1">  1        2 0.33083595E+00 0.50627551E+03</pdfrwt>
<totfact> 0.18955580E+01</totfact>
</mgrwt>
</event>
<event>
12      1 +1.4674046e+01 1.86286900e+02 7.54677100e-03 1.16479800e-01
       21 -1    0    0  501  502 +0.0000000000e+00 +0.0000000000e+00 +1.0638066094e+02 1.0638066094e+02 0.0000000000e+00 0.0000e+00 1.0000e+00
       21 -1    0    0  502  503 -0.0000000000e+00 -0.0000000000e+00 -4.8162668247e+02 4.8162668247e+02 0.0000000000e+00 0.0000e+00 1.0000e+00
       -6  2    1    2    0  503 -4.8951613433e+01 -4.8496356925e+01 -3.6151320119e+02 4.0121499619e+02 1.5979211946e+02 0.0000e+00 0.0000e+00
      -24  2    3    3    0    0 -8.2029455967e+01 -1.8370522958e+01 -3.1775405398e+02 3.3845623184e+02 8.0738307433e+01 0.0000e+00 0.0000e+00
        6  2    1    2  501    0 +4.8951613433e+01 +4.8496356925e+01 -1.3732820339e+01 1.8679234721e+02 1.7307406949e+02 0.0000e+00 0.0000e+00
       24  2    5    5    0    0 -5.4274974236e+00 +8.7113776143e+01 -6.3987432762e+00 1.1952964246e+02 8.1413289999e+01 0.0000e+00 0.0000e+00
        5  1    5    5  501    0 +5.4379110856e+01 -3.8617419218e+01 -7.3340770630e+00 6.7262704755e+01 4.7000000000e+00 0.0000e+00 -1.0000e+00
      -13  1    6    6    0    0 +2.7762464147e+01 +6.3661339835e+00 +1.0958274746e+01 3.0518287351e+01 0.0000000000e+00 0.0000e+00 1.0000e+00
       14  1    6    6    0    0 -3.3189961571e+01 +8.0747642160e+01 -1.7357018022e+01 8.9011355107e+01 0.0000000000e+00 0.0000e+00 -1.0000e+00
       -5  1    3    3    0  503 +3.3077842535e+01 -3.0125833967e+01 -4.3759147206e+01 6.2758764353e+01 4.7000000000e+00 0.0000e+00 1.0000e+00
       13  1    4    4    0    0 -7.8903659062e+00 +6.3211099419e+00 +1.0969083581e+00 1.0169440151e+01 0.0000000000e+00 0.0000e+00 -1.0000e+00
      -14  1    4    4    0    0 -7.4139090061e+01 -2.4691632900e+01 -3.1885096234e+02 3.2828679169e+02 0.0000000000e+00 0.0000e+00 1.0000e+00
<mgrwt>
<rscale>  2 0.18314039E+03</rscale>
<asrwt>0</asrwt>
<pdfrwt beam="1">  1       21 0.16366255E-01 0.18628685E+03</pdfrwt>
<pdfrwt beam="2">  1       21 0.74096413E-01 0.18628685E+03</pdfrwt>
<totfact> 0.54805445E+04</totfact>
</mgrwt>
</event>
<event>
13      3 +1.4674046e+01 3.78673100e+02 7.54677100e-03 1.06121000e-01
       21 -1    0    0  501  502 +0.0000000000e+00 +0.0000000000e+00 +8.7858514823e+02 8.7858514823e+02 0.0000000000e+00 0.0000e+00 1.0000e+00
       21 -1    0    0  505  503 -0.0000000000e+00 -0.0000000000e+00 -1.1803555967e+03 1.1803555967e+03 0.0000000000e+00 0.0000e+00 1.0000e+00
       -6  2    1    2    0  503 +3.5773517397e+01 -2.2022764399e+02 +1.0681771327e+02 3.0265367595e+02 1.7438252198e+02 0.0000e+00 0.0000e+00
      -24  2    3    3    0    0 +2.4828094804e+01 -9.7531768361e+01 +1.2280102158e+02 1.7834906495e+02 8.1236801604e+01 0.0000e+00 0.0000e+00
       24  2    1    2    0    0 -3.9749944542e+01 +1.4646377680e+02 -3.8992451462e+01 1.7609054327e+02 8.0347819846e+01 0.0000e+00 0.0000e+00
        5  1    1    2  501    0 +8.8449358591e-01 +8.3487490260e+01 +2.4215915358e+02 2.5619150848e+02 4.7000000000e+00 0.0000e+00 -1.0000e+00
      -13  1    5    5    0    0 +1.3934508778e+01 +8.3156891032e+01 +1.5728440182e-01 8.4316450349e+01 0.0000000000e+00 0.0000e+00 1.0000e+00
       14  1    5    5    0    0 -5.3684453321e+01 +6.3306885764e+01 -3.9149735864e+01 9.1774092922e+01 0.0000000000e+00 0.0000e+00 -1.0000e+00
       -5  1    3    3    0  503 +1.0945422593e+01 -1.2269587563e+02 -1.5983308309e+01 1.2430461101e+02 4.7000000000e+00 0.0000e+00 1.0000e+00
       13  1    4    4    0    0 -2.8219246115e+01 -2.2217808454e+01 +4.6351222227e+01 5.8637809183e+01 0.0000000000e+00 0.0000e+00 -1.0000e+00
      -14  1    4    4    0    0 +5.3047340919e+01 -7.5313959907e+01 +7.6449799355e+01 1.1971125576e+02 0.0000000000e+00 0.0000e+00 1.0000e+00
       21  1    1    2  504  502 -2.0168306094e+01 +1.3365176844e+01 +3.5543625076e+02 3.5625877796e+02 0.0000000000e+00 0.0000e+00 1.0000e+00
       21  1    1    2  505  504 +2.3260239653e+01 -2.3088799908e+01 -9.6719111457e+02 9.6774623922e+02 0.0000000000e+00 0.0000e+00 1.0000e+00
<mgrwt>
<rscale>  4 0.35344402E+03</rscale>
<asrwt>0</asrwt>
<pdfrwt beam="1">  1       21 0.13516695E+00 0.37867313E+03</pdfrwt>
<pdfrwt beam="2">  1       21 0.18159317E+00 0.37867313E+03</pdfrwt>
<totfact> 0.57316182E+01</totfact>
</mgrwt>
</event>
<event>
14      3 +1.4674046e+01 1.76406500e+02 7.54677100e-03 1.17219900e-01
       21 -1    0    0  503  502 +0.0000000000e+00 +0.0000000000e+00 +1.0824678212e+03 1.0824678212e+03 0.0000000000e+00 0.0000e+00 1.0000e+00
       21 -1    0    0  504  503 -0.0000000000e+00 -0.0000000000e+00 -6.6768050279e+02 6.6768050279e+02 0.0000000000e+00 0.0000e+00 -1.0000e+00
        6  2    1    2  501    0 +1.0753664341e+02 -3.5504472448e+01 +3.3676177211e+02 3.8880308322e+02 1.5790709017e+02 0.0000e+00 0.0000e+00
       24  2    3    3    0    0 +7.3166552592e+01 -5.7502116363e+01 +3.2088000452e+02 3.4476310113e+02 8.5075147934e+01 0.0000e+00 0.0000e+00
       -6  2    1    2    0  505 +1.3554060864e+01 -1.9010821009e+01 +3.3317818595e+02 3.7592897238e+02 1.7253916889e+02 0.0000e+00 0.0000e+00
      -24  2    5    5    0    0 -2.7138044566e+01 +2.2186544162e+01 +8.9092914383e+01 1.2502504627e+02 8.0405214987e+01 0.0000e+00 0.0000e+00
        5  1    3    3  501    0 +3.4370090815e+01 +2.1997643914e+01 +1.5881767590e+01 4.4039982086e+01 4.7000000000e+00 0.0000e+00 -1.0000e+00
      -13  1    4    4    0    0 +8.9425566682e+01 -3.1810869123e+01 +2.2571887891e+02 2.4486297325e+02 0.0000000000e+00 0.0000e+00 1.0000e+00
       14  1    4    4    0    0 -1.6259014090e+01 -2.5691247240e+01 +9.5161125607e+01 9.9900127881e+01 0.0000000000e+00 0.0000e+00 -1.0000e+00
       -5  1    5    5    0  505 +4.0692105430e+01 -4.1197365171e+01 +2.4408527157e+02 2.5090392611e+02 4.7000000000e+00 0.0000e+00 1.0000e+00
       13  1    6    6    0    0 +3.6736863240e+00 +4.4669603670e+01 +2.7518804773e+01 5.2594239983e+01 0.0000000000e+00 0.0000e+00 -1.0000e+00
      -14  1    6    6    0    0 -3.0811730890e+01 -2.2483059508e+01 +6.1574109610e+01 7.2430806288e+01 0.0000000000e+00 0.0000e+00 1.0000e+00
       21  1    1    2  504  501 -1.6199153162e+02 +6.2464545108e+01 -6.0688177639e+02 6.3122782434e+02 0.0000000000e+00 0.0000e+00 -1.0000e+00
       21  1    1    2  505  502 +4.0900827346e+01 -7.9492516504e+00 +3.5172913676e+02 3.5418844409e+02 0.0000000000e+00 0.0000e+00 1.0000e+00
<mgrwt>
<rscale>  4 0.17553164E+03</rscale>
<asrwt>0</asrwt>
<pdfrwt beam="1">  1       21 0.16653351E+00 0.17640645E+03</pdfrwt>
<pdfrwt beam="2">  1       21 0.10272008E+00 0.17640645E+03</pdfrwt>
<totfact> 0.17779764E+02</totfact>
</mgrwt>
</event>
<event>
12      1 +1.4674046e+01 1.92607200e+02 7.54677100e-03 1.15704400e-01
       21 -1    0    0  501  502 +0.0000000000e+00 +0.0000000000e+00 +3.5756130383e+02 3.5756130383e+02 0.0000000000e+00 0.0000e+00 1.0000e+00
       21 -1    0    0  502  503 -0.0000000000e+00 -0.0000000000e+00 -3.1171223851e+02 3.1171223851e+02 0.0000000000e+00 0.0000e+00 -1.0000e+00
       -6  2    1    2    0  503 -8.6367180315e+01 +1.3367392291e+00 -2.5175247768e+02 3.1698080339e+02 1.7215238306e+02 0.0000e+00 0.0000e+00
      -24  2    3    3    0    0 -1.0147459879e+02 -1.3976573741e+01 -2.6197233742e+02 2.9270597733e+02 8.0961995879e+01 0.0000e+00 0.0000e+00
        6  2    1    2  501    0 +8.6367180315e+01 -1.3367392291e+00 +2.9760154300e+02 3.5229273894e+02 1.6757809763e+02 0.0000e+00 0.0000e+00
       24  2    5    5    0    0 +7.7513644324e+01 +4.0106045119e+01 +2.8657700688e+02 3.0825275858e+02 7.2639674994e+01 0.0000e+00 0.0000e+00
        5  1    5    5  501    0 +8.8535359912e+00 -4.1442784348e+01 +1.1024536120e+01 4.4039980367e+01 4.7000000000e+00 0.0000e+00 -1.0000e+00
      -13  1    6    6    0    0 +8.6081062832e+01 +4.4367536741e+01 +2.1208917439e+02 2.3315283740e+02 0.0000000000e+00 0.0000e+00 1.0000e+00
       14  1    6    6    0    0 -8.5674185088e+00 -4.2614916214e+00 +7.4487832491e+01 7.5099921171e+01 0.0000000000e+00 0.0000e+00 -1.0000e+00
       -5  1    3    3    0  503 +1.5107418479e+01 +1.5313312970e+01 +1.0219859740e+01 2.4274826062e+01 4.7000000000e+00 0.0000e+00 1.0000e+00
       13  1    4    4    0    0 -5.6171534101e+01 +1.9467217163e+00 -4.9564645774e+01 7.4937874799e+01 0.0000000000e+00 0.0000e+00 -1.0000e+00
      -14  1    4    4    0    0 -4.5303064693e+01 -1.5923295458e+01 -2.1240769165e+02 2.1776810253e+02 0.0000000000e+00 0.0000e+00 1.0000e+00
<mgrwt>
<rscale>  2 0.19157964E+03</rscale>
<asrwt>0</asrwt>
<pdfrwt beam="1">  1       21 0.55009431E-01 0.19260716E+03</pdfrwt>
<pdfrwt beam="2">  1       21 0.47955729E-01 0.19260716E+03</pdfrwt>
<totfact> 0.12959355E+04</totfact>
</mgrwt>
</event>
<event>
13      2 +1.4674046e+01 3.96796600e+02 7.54677100e-03 1.04489500e-01
       21 -1    0    0  504  502 +0.0000000000e+00 +0.0000000000e+00 +5.4320748295e+02 5.4320748295e+02 0.0000000000e+00 0.0000e+00 1.0000e+00
       21 -1    0    0  502  503 -0.0000000000e+00 -0.0000000000e+00 -1.7783388472e+02 1.7783388472e+02 0.0000000000e+00 0.0000e+00 1.0000e+00
       -6  2    1    2    0  503 +3.5854079120e+01 -1.0937977938e+02 +1.5861022378e+02 2.6116136162e+02 1.7262271747e+02 0.0000e+00 0.0000e+00
      -24  2    3    3    0    0 +4.5550759629e+01 -1.3120334329e+02 +7.9277113478e+01 1.7817867700e+02 7.8572203882e+01 0.0000e+00 0.0000e+00
        6  2    1    2  501    0 +4.1483246196e+01 -5.7717160424e+01 +2.0303869433e+02 2.7571615938e+02 1.7246031088e+02 0.0000e+00 0.0000e+00
       24  2    5    5    0    0 +3.5335398810e+01 +3.2335153738e+01 +1.0142553890e+02 1.3972153203e+02 8.3311547786e+01 0.0000e+00 0.0000e+00
        5  1    5    5  501    0 +6.1478473866e+00 -9.0052314162e+01 +1.0161315543e+02 1.3599462736e+02 4.7000000000e+00 0.0000e+00 -1.0000e+00
      -13  1    6    6    0    0 +4.6772012859e+01 -2.0523317893e+00 +2.0610222821e+01 5.1152854636e+01 0.0000000000e+00 0.0000e+00 1.0000e+00
       14  1    6    6    0    0 -1.1436614050e+01 +3.4387485527e+01 +8.0815316078e+01 8.8568677390e+01 0.0000000000e+00 0.0000e+00 -1.0000e+00
       -5  1    3    3    0  503 -9.6966805087e+00 +2.1823563913e+01 +7.9333110306e+01 8.2982684613e+01 4.7000000000e+00 0.0000e+00 1.0000e+00
       13  1    4    4    0    0 +2.4387832323e+01 -7.3660486060e+00 -6.2069707057e+00 2.6221203688e+01 0.0000000000e+00 0.0000e+00 -1.0000e+00
      -14  1    4    4    0    0 +2.1162927306e+01 -1.2383729469e+02 +8.5484084183e+01 1.5195747332e+02 0.0000000000e+00 0.0000e+00 1.0000e+00
       21  1    1    2  504  501 -7.7337325316e+01 +1.6709693980e+02 +3.7246801212e+00 1.8416384667e+02 0.0000000000e+00 0.0000e+00 1.0000e+00
<mgrwt>
<rscale>  3 0.39679659E+03</rscale>
<asrwt>0</asrwt>
<pdfrwt beam="1">  1       21 0.83570381E-01 0.39679659E+03</pdfrwt>
<pdfrwt beam="2">  1       21 0.27359059E-01 0.39679659E+03</pdfrwt>
<totfact> 0.14469808E+04</totfact>
</mgrwt>
</event>
<event>
14      3 +1.4674046e+01 2.20381000e+02 7.54677100e-03 1.13465100e-01
       21 -1    0    0  504  502 +0.0000000000e+00 +0.0000000000e+00 +1.5758907717e+02 1.5758907717e+02 0.0000000000e+00 0.0000e+00 1.0000e+00
       21 -1    0    0  501  503 -0.0000000000e+00 -0.0000000000e+00 -1.1235482640e+03 1.1235482640e+03 0.0000000000e+00 0.0000e+00 1.0000e+00
        6  2    1    2  501    0 -5.5850458478e+01 +2.7809542188e+00 -1.8039466245e+02 2.5114462944e+02 1.6554269310e+02 0.0000e+00 0.0000e+00
       24  2    3    3    0    0 -9.3500311491e+01 +2.6320691676e+01 -1.4780299401e+02 1.9586409469e+02 8.4154212548e+01 0.0000e+00 0.0000e+00
       -6  2    1    2    0  502 +1.6955660789e+02 -1.0090779439e+02 -3.6938548290e+01 2.6481891663e+02 1.7272167207e+02 0.0000e+00 0.0000e+00
      -24  2    5    5    0    0 +2.5400219858e+01 -5.0217506383e+01 -5.2050363292e+01 1.1119266086e+02 8.0545629262e+01 0.0000e+00 0.0000e+00
        5  1    3    3  501    0 +3.7649853013e+01 -2.3539737457e+01 -3.2591668436e+01 5.5280534756e+01 4.7000000000e+00 0.0000e+00 -1.0000e+00
      -13  1    4    4    0    0 -5.7127322664e+01 +5.6333530463e+00 -1.4257111073e+02 1.5369381015e+02 0.0000000000e+00 0.0000e+00 1.0000e+00
       14  1    4    4    0    0 -3.6372988826e+01 +2.0687338630e+01 -5.2318832801e+00 4.2170284543e+01 0.0000000000e+00 0.0000e+00 -1.0000e+00
       -5  1    5    5    0  502 +1.4415638803e+02 -5.0690288011e+01 +1.5111815002e+01 1.5362625577e+02 4.7000000000e+00 0.0000e+00 1.0000e+00
       13  1    6    6    0    0 +2.0196118924e+01 +1.9167899421e+01 -8.5232703143e+00 2.9119370266e+01 0.0000000000e+00 0.0000e+00 -1.0000e+00
      -14  1    6    6    0    0 +5.2041009334e+00 -6.9385405804e+01 -4.3527092978e+01 8.2073290590e+01 0.0000000000e+00 0.0000e+00 1.0000e+00
       21  1    1    2  504  505 -2.8825423227e+01 +4.6695864862e+01 -3.5566791598e+02 3.5987647224e+02 0.0000000000e+00 0.0000e+00 1.0000e+00
       21  1    1    2  505  503 -8.4880726186e+01 +5.1430975313e+01 -3.9295806013e+02 4.0529732287e+02 0.0000000000e+00 0.0000e+00 1.0000e+00
<mgrwt>
<rscale>  4 0.21897252E+03</rscale>
<asrwt>0</asrwt>
<pdfrwt beam="1">  1       21 0.24244473E-01 0.22038101E+03</pdfrwt>
<pdfrwt beam="2">  1       21 0.17285359E+00 0.22038101E+03</pdfrwt>
<totfact> 0.31927823E+03</totfact>
</mgrwt>
</event>
<event>
12      1 +1.4674046e+01 1.81363900e+02 7.54677100e-03 1.16666900e-01
       21 -1    0    0  501  502 +0.0000000000e+00 +0.0000000000e+00 +1.0530123963e+02 1.0530123963e+02 0.0000000000e+00 0.0000e+00 -1.0000e+00
       21 -1    0    0  502  503 -0.0000000000e+00 -0.0000000000e+00 -3.1168995673e+02 3.1168995673e+02 0.0000000000e+00 0.0000e+00 -1.0000e+00
       -6  2    1    2    0  503 -2.0087439677e+01 -5.6426197044e+01 -9.4219116649e+01 2.0437736694e+02 1.7118833264e+02 0.0000e+00 0.0000e+00
      -24  2    3    3    0    0 +4.9214228426e+01 -5.1706794392e+01 -6.7684947144e+01 1.2987135299e+02 8.4792000758e+01 0.0000e+00 0.0000e+00
        6  2    1    2  501    0 +2.0087439677e+01 +5.6426197044e+01 -1.1216960045e+02 2.1261382942e+02 1.7039718381e+02 0.0000e+00 0.0000e+00
       24  2    5    5    0    0 -2.7077921675e+01 +3.5668164862e+00 -1.1464966487e+02 1.4157210827e+02 7.8435834691e+01 0.0000e+00 0.0000e+00
        5  1    5    5  501    0 +4.7165361352e+01 +5.2859380558e+01 +2.4800644220e+00 7.1041721150e+01 4.7000000000e+00 0.0000e+00 -1.0000e+00
      -13  1    6    6    0    0 +1.7848086770e+01 -2.4328179817e+01 -4.1548111218e+01 5.1348418479e+01 0.0000000000e+00 0.0000e+00 1.0000e+00
       14  1    6    6    0    0 -4.4926008445e+01 +2.7894996303e+01 -7.3101553655e+01 9.0223689795e+01 0.0000000000e+00 0.0000e+00 -1.0000e+00
       -5  1    3    3    0  503 -6.9301668103e+01 -4.7194026512e+00 -2.6534169505e+01 7.4506013949e+01 4.7000000000e+00 0.0000e+00 1.0000e+00
       13  1    4    4    0    0 +5.6565272024e+01 -7.0257059884e+01 -4.9571546481e+01 1.0292241099e+02 0.0000000000e+00 0.0000e+00 -1.0000e+00
      -14  1    4    4    0    0 -7.3510435976e+00 +1.8550265491e+01 -1.8113400664e+01 2.6948942008e+01 0.0000000000e+00 0.0000e+00 1.0000e+00
<mgrwt>
<rscale>  2 0.18117697E+03</rscale>
<asrwt>0</asrwt>
<pdfrwt beam="1">  1       21 0.16200191E-01 0.18136391E+03</pdfrwt>
<pdfrwt beam="2">  1       21 0.47952300E-01 0.18136391E+03</pdfrwt>
<totfact> 0.14219590E+05</totfact>
</mgrwt>
</event>
<event>
12      1 +1.4674046e+01 1.84666900e+02 7.54677100e-03 1.16346100e-01
       21 -1    0    0  503  502 +0.0000000000e+00 +0.0000000000e+00 +1.2153289345e+02 1.2153289345e+02 0.0000000000e+00 0.0000e+00 -1.0000e+00
       21 -1    0    0  501  503 -0.0000000000e+00 -0.0000000000e+00 -2.8028597664e+02 2.8028597664e+02 0.0000000000e+00 0.0000e+00 -1.0000e+00
        6  2    1    2  501    0 -5.7016007637e+01 -2.2756511641e+01 -8.6212138275e+01 2.0341511736e+02 1.7371382569e+02 0.0000e+00 0.0000e+00
       24  2    3    3    0    0 +2.7911959622e+01 -4.0771189717e+01 -5.4273509573e+01 1.1078977390e+02 8.2990317254e+01 0.0000e+00 0.0000e+00
       -6  2    1    2    0  502 +5.7016007637e+01 +2.2756511641e+01 -7.2540944917e+01 1.9840375272e+02 1.7416422266e+02 0.0000e+00 0.0000e+00
      -24  2    5    5    0    0 -1.5623295622e+00 +1.6591245797e+01 +2.4350117278e+01 8.4916308368e+01 7.9625001756e+01 0.0000e+00 0.0000e+00
        5  1    3    3  501    0 -8.4927967259e+01 +1.8014678077e+01 -3.1938628702e+01 9.2625343467e+01 4.7000000000e+00 0.0000e+00 -1.0000e+00
      -13  1    4    4    0    0 +7.3821512322e+00 +1.8167940639e+01 +9.2970699630e+00 2.1702666513e+01 0.0000000000e+00 0.0000e+00 1.0000e+00
       14  1    4    4    0    0 +2.0529808390e+01 -5.8939130356e+01 -6.3570579536e+01 8.9087107385e+01 0.0000000000e+00 0.0000e+00 -1.0000e+00
       -5  1    5    5    0  502 +5.8578337200e+01 +6.1652658436e+00 -9.6891062196e+01 1.1348744435e+02 4.7000000000e+00 0.0000e+00 1.0000e+00
       13  1    6    6    0    0 -3.1262132530e+01 -4.1447809512e+00 +3.5047955715e+01 4.7147209241e+01 0.0000000000e+00 0.0000e+00 -1.0000e+00
      -14  1    6    6    0    0 +2.9699802968e+01 +2.0736026748e+01 -1.0697838436e+01 3.7769099127e+01 0.0000000000e+00 0.0000e+00 1.0000e+00
<mgrwt>
<rscale>  2 0.18456062E+03</rscale>
<asrwt>0</asrwt>
<pdfrwt beam="1">  1       21 0.18697368E-01 0.18466689E+03</pdfrwt>
<pdfrwt beam="2">  1       21 0.43120919E-01 0.18466689E+03</pdfrwt>
<totfact> 0.13567621E+05</totfact>
</mgrwt>
</event>
<event>
14      3 +1.4674046e+01 4.79081000e+02 7.54677100e-03 1.01938800e-01
       21 -1    0    0  504  502 +0.0000000000e+00 +0.0000000000e+00 +1.1918999742e+03 1.1918999742e+03 0.0000000000e+00 0.0000e+00 1.0000e+00
       21 -1    0    0  501  503 -0.0000000000e+00 -0.0000000000e+00 -1.3294563569e+02 1.3294563569e+02 0.0000000000e+00 0.0000e+00 1.0000e+00
        6  2    1    2  501    0 -1.5046096606e+02 +1.7137229162e+02 +3.7107721997e+02 4.6857253085e+02 1.7278584677e+02 0.0000e+00 0.0000e+00
       24  2    3    3    0    0 -1.6433478756e+02 +1.2147354864e+02 +3.4825387075e+02 4.1178025370e+02 8.0749448439e+01 0.0000e+00 0.0000e+00
       -6  2    1    2    0  502 -5.4887284504e+01 +6.5171715337e+01 +2.3663172362e+02 3.0526771665e+02 1.7301398708e+02 0.0000e+00 0.0000e+00
      -24  2    5    5    0    0 -4.4943645320e+01 +2.4808130706e+01 +3.6555519740e+01 1.0086450659e+02 7.8752574956e+01 0.0000e+00 0.0000e+00
        5  1    3    3  501    0 +1.3873821497e+01 +4.9898742987e+01 +2.2823349218e+01 5.6792277152e+01 4.7000000000e+00 0.0000e+00 -1.0000e+00
      -13  1    4    4    0    0 -9.3653569688e+01 +1.9562472892e+01 +1.4805915681e+02 1.7628157980e+02 0.0000000000e+00 0.0000e+00 1.0000e+00
       14  1    4    4    0    0 -7.0681217872e+01 +1.0191107574e+02 +2.0019471394e+02 2.3549867390e+02 0.0000000000e+00 0.0000e+00 -1.0000e+00
       -5  1    5    5    0  502 -9.9436391842e+00 +4.0363584631e+01 +2.0007620388e+02 2.0440321006e+02 4.7000000000e+00 0.0000e+00 1.0000e+00
       13  1    6    6    0    0 +1.1306327687e+01 -1.3185024410e+01 -8.5565354375e+00 1.9362133487e+01 0.0000000000e+00 0.0000e+00 -1.0000e+00
      -14  1    6    6    0    0 -5.6249973007e+01 +3.7993155116e+01 +4.5112055177e+01 8.1502373103e+01 0.0000000000e+00 0.0000e+00 1.0000e+00
       21  1    1    2  504  505 +1.3851464786e+02 -1.6281205572e+02 +2.7151463934e+02 3.4556370257e+02 0.0000000000e+00 0.0000e+00 1.0000e+00
       21  1    1    2  505  503 +6.6833602709e+01 -7.3731951245e+01 +1.7973075561e+02 2.0544165984e+02 0.0000000000e+00 0.0000e+00 1.0000e+00
<mgrwt>
<rscale>  4 0.47908096E+03</rscale>
<asrwt>0</asrwt>
<pdfrwt beam="1">  1       21 0.18336922E+00 0.47908096E+03</pdfrwt>
<pdfrwt beam="2">  1       21 0.20453175E-01 0.47908096E+03</pdfrwt>
<totfact> 0.32405463E+03</totfact>
</mgrwt>
</event>
<event>
12      1 +1.4674046e+01 1.87323300e+02 7.54677100e-03 1.16321300e-01
       21 -1    0    0  501  502 +0.0000000000e+00 +0.0000000000e+00 +4.2312493968e+01 4.2312493968e+01 0.0000000000e+00 0.0000e+00 -1.0000e+00
       21 -1    0    0  502  503 -0.0000000000e+00 -0.0000000000e+00 -7.8689332802e+02 7.8689332802e+02 0.0000000000e+00 0.0000e+00 1.0000e+00
       -6  2    1    2    0  503 +3.6182339259e+01 -1.9828325507e+01 -3.7137059040e+02 4.1162240939e+02 1.7266895590e+02 0.0000e+00 0.0000e+00
      -24  2    3    3    0    0 +3.6623918244e+01 -6.7508277539e+01 -1.5749828268e+02 1.9244890089e+02 7.9575068228e+01 0.0000e+00 0.0000e+00
        6  2    1    2  501    0 -3.6182339259e+01 +1.9828325507e+01 -3.7321024365e+02 4.1758341260e+02 1.8272300442e+02 0.0000e+00 0.0000e+00
       24  2    5    5    0    0 -8.9009699271e+01 +3.9251357468e+01 -2.9282450463e+02 3.1933911926e+02 8.2267168106e+01 0.0000e+00 0.0000e+00
        5  1    5    5  501    0 +5.2827360011e+01 -1.9423031961e+01 -8.0385739017e+01 9.8244293339e+01 4.7000000000e+00 0.0000e+00 -1.0000e+00
      -13  1    6    6    0    0 -5.1265717330e+01 -2.1732650891e+01 -1.2742643176e+02 1.3906105637e+02 0.0000000000e+00 0.0000e+00 1.0000e+00
       14  1    6    6    0    0 -3.7743981940e+01 +6.0984008359e+01 -1.6539807287e+02 1.8027806289e+02 0.0000000000e+00 0.0000e+00 -1.0000e+00
       -5  1    3    3    0  503 -4.4157898495e-01 +4.7679952032e+01 -2.1387230772e+02 2.1917350850e+02 4.7000000000e+00 0.0000e+00 1.0000e+00
       13  1    4    4    0    0 +3.4623519725e+01 -2.5731761106e+01 -1.7873530493e+01 4.6694482973e+01 0.0000000000e+00 0.0000e+00 -1.0000e+00
      -14  1    4    4    0    0 +2.0003985188e+00 -4.1776516432e+01 -1.3962475219e+02 1.4575441792e+02 0.0000000000e+00 0.0000e+00 1.0000e+00
<mgrwt>
<rscale>  2 0.18482545E+03</rscale>
<asrwt>0</asrwt>
<pdfrwt beam="1">  1       21 0.65096146E-02 0.18732330E+03</pdfrwt>
<pdfrwt beam="2">  1       21 0.12106051E+00 0.18732330E+03</pdfrwt>
<totfact> 0.88791353E+04</totfact>
</mgrwt>
</event>
<event>
12      1 +1.4674046e+01 2.41423800e+02 7.54677100e-03 1.11910300e-01
       21 -1    0    0  501  502 +0.0000000000e+00 +0.0000000000e+00 +1.3878082896e+03 1.3878082896e+03 0.0000000000e+00 0.0000e+00 1.0000e+00
       21 -1    0    0  502  503 -0.0000000000e+00 -0.0000000000e+00 -5.6983197033e+01 5.6983197033e+01 0.0000000000e+00 0.0000e+00 1.0000e+00
       -6  2    1    2    0  503 +6.6013326194e+00 +1.6577042468e+02 +2.9012416747e+02 3.7645452536e+02 1.7327021043e+02 0.0000e+00 0.0000e+00
      -24  2    3    3    0    0 +6.0212028597e+01 +9.8802199822e+01 +2.3516908563e+02 2.7446922796e+02 8.1495369113e+01 0.0000e+00 0.0000e+00
        6  2    1    2  501    0 -6.6013326194e+00 -1.6577042468e+02 +1.0407009251e+03 1.0683369612e+03 1.7539109451e+02 0.0000e+00 0.0000e+00
       24  2    5    5    0    0 +3.7936209827e+00 -1.8463534365e+02 +7.4330309439e+02 7.7012311194e+02 8.0532699723e+01 0.0000e+00 0.0000e+00
        5  1    5    5  501    0 -1.0394953602e+01 +1.8864918964e+01 +2.9739783066e+02 2.9821384929e+02 4.7000000000e+00 0.0000e+00 -1.0000e+00
      -13  1    6    6    0    0 -1.5000610595e+01 -1.3200255141e+02 +6.2914560559e+02 6.4301935035e+02 0.0000000000e+00 0.0000e+00 1.0000e+00
       14  1    6    6    0    0 +1.8794231577e+01 -5.2632792235e+01 +1.1415748880e+02 1.2710376158e+02 0.0000000000e+00 0.0000e+00 -1.0000e+00
       -5  1    3    3    0  503 -5.3610695977e+01 +6.6968224862e+01 +5.4955081840e+01 1.0198529739e+02 4.7000000000e+00 0.0000e+00 1.0000e+00
       13  1    4    4    0    0 +2.3886689514e+01 -9.0350580604e+00 +6.4213886149e+01 6.9105928722e+01 0.0000000000e+00 0.0000e+00 -1.0000e+00
      -14  1    4    4    0    0 +3.6325339083e+01 +1.0783725788e+02 +1.7095519948e+02 2.0536329924e+02 0.0000000000e+00 0.0000e+00 1.0000e+00
<mgrwt>
<rscale>  2 0.24103878E+03</rscale>
<asrwt>0</asrwt>
<pdfrwt beam="1">  1       21 0.21350894E+00 0.24142379E+03</pdfrwt>
<pdfrwt beam="2">  1       21 0.87666467E-02 0.24142379E+03</pdfrwt>
<totfact> 0.10859738E+04</totfact>
</mgrwt>
</event>
<event>
14      3 +1.4674046e+01 1.91450500e+02 7.54677100e-03 1.15756700e-01
        1 -1    0    0  501    0 -0.0000000000e+00 +0.0000000000e+00 +9.7061829995e+02 9.7061829995e+02 0.0000000000e+00 0.0000e+00 1.0000e+00
       21 -1    0    0  504  503 +0.0000000000e+00 -0.0000000000e+00 -2.0100694350e+02 2.0100694350e+02 0.0000000000e+00 0.0000e+00 -1.0000e+00
        6  2    1    2  501    0 -4.8992066991e+01 +4.4250940134e+01 +5.1008083596e+01 1.9102960004e+02 1.7184910581e+02 0.0000e+00 0.0000e+00
       24  2    3    3    0    0 -4.1843456275e+01 +6.8956628334e+01 +8.8635526919e+01 1.4521051934e+02 8.1999676048e+01 0.0000e+00 0.0000e+00
       -6  2    1    2    0  503 +7.9127816233e+01 -4.9120669543e+01 -4.6017738004e+00 1.9727907535e+02 1.7384995188e+02 0.0000e+00 0.0000e+00
      -24  2    5    5    0    0 +4.1388840696e+01 +1.0889816253e+01 +5.4157354780e+01 1.0508247090e+02 7.9231826824e+01 0.0000e+00 0.0000e+00
        5  1    3    3  501    0 -7.1486107154e+00 -2.4705688200e+01 -3.7627443323e+01 4.5819080694e+01 4.7000000000e+00 0.0000e+00 -1.0000e+00
      -13  1    4    4    0    0 +1.7846756851e+01 +4.0740739766e+01 +5.6138835620e+01 7.1623204840e+01 0.0000000000e+00 0.0000e+00 1.0000e+00
       14  1    4    4    0    0 -5.9690213126e+01 +2.8215888568e+01 +3.2496691299e+01 7.3587314505e+01 0.0000000000e+00 0.0000e+00 -1.0000e+00
       -5  1    5    5    0  503 +3.7738975537e+01 -6.0010485795e+01 -5.8759128580e+01 9.2196604446e+01 4.7000000000e+00 0.0000e+00 1.0000e+00
       13  1    6    6    0    0 -1.3495863183e+01 +7.6512260562e-01 -1.2315755459e+01 1.8286649999e+01 0.0000000000e+00 0.0000e+00 -1.0000e+00
      -14  1    6    6    0    0 +5.4884703879e+01 +1.0124693647e+01 +6.6473110239e+01 8.6795820903e+01 0.0000000000e+00 0.0000e+00 1.0000e+00
       21  1    1    2  504  502 +1.4138609365e+01 +2.8442704504e+01 -2.0576611270e+01 3.7845536668e+01 0.0000000000e+00 0.0000e+00 -1.0000e+00
        1  1    1    2  502    0 -4.4274358607e+01 -2.3572975096e+01 +7.4378165793e+02 7.4547103140e+02 0.0000000000e+00 0.0000e+00 1.0000e+00
<mgrwt>
<rscale>  4 0.19099516E+03</rscale>
<asrwt>0</asrwt>
<pdfrwt beam="2">  1       21 0.30924146E-01 0.19145054E+03</pdfrwt>
<pdfrwt beam="1">  1        1 0.14932589E+00 0.19145054E+03</pdfrwt>
<totfact> 0.18998325E+03</totfact>
</mgrwt>
</event>
<event>
13      2 +1.4674046e+01 1.98253500e+02 7.54677100e-03 1.15381200e-01
       21 -1    0    0  503  502 +0.0000000000e+00 +0.0000000000e+00 +2.3314417749e+02 2.3314417749e+02 0.0000000000e+00 0.0000e+00 1.0000e+00
       21 -1    0    0  501  503 -0.0000000000e+00 -0.0000000000e+00 -5.2218821932e+02 5.2218821932e+02 0.0000000000e+00 0.0000e+00 -1.0000e+00
        6  2    1    2  501    0 +2.4000565032e+01 +9.5159748328e+01 -3.5935499499e+02 4.1136610406e+02 1.7451261936e+02 0.0000e+00 0.0000e+00
       24  2    3    3    0    0 -2.3146552195e+01 -8.2664344890e-01 -1.0351080754e+02 1.3403133105e+02 8.1935732168e+01 0.0000e+00 0.0000e+00
       -6  2    1    2    0  504 -4.3302370960e+01 -7.5235170416e+01 -7.3756857067e+01 1.9725200420e+02 1.6103680635e+02 0.0000e+00 0.0000e+00
      -24  2    5    5    0    0 -1.2874381770e+01 -2.6067031392e+01 -1.0173266521e+02 1.3284622603e+02 8.0332712933e+01 0.0000e+00 0.0000e+00
        5  1    3    3  501    0 +4.7147117226e+01 +9.5986391777e+01 -2.5584418745e+02 2.7733477301e+02 4.7000000000e+00 0.0000e+00 -1.0000e+00
      -13  1    4    4    0    0 -2.2859202370e+01 -3.1330465031e+01 -1.7084628049e+01 4.2379543268e+01 0.0000000000e+00 0.0000e+00 1.0000e+00
       14  1    4    4    0    0 -2.8734982473e-01 +3.0503821582e+01 -8.6426179492e+01 9.1651787777e+01 0.0000000000e+00 0.0000e+00 -1.0000e+00
       -5  1    5    5    0  504 -3.0427989189e+01 -4.9168139024e+01 +2.7975808142e+01 6.4405778175e+01 4.7000000000e+00 0.0000e+00 1.0000e+00
       13  1    6    6    0    0 +1.0950732960e+01 -4.8673173346e+01 -4.4465083250e+01 6.6829185125e+01 0.0000000000e+00 0.0000e+00 -1.0000e+00
      -14  1    6    6    0    0 -2.3825114730e+01 +2.2606141954e+01 -5.7267581959e+01 6.6017040901e+01 0.0000000000e+00 0.0000e+00 1.0000e+00
       21  1    1    2  504  502 +1.9301805928e+01 -1.9924577912e+01 +1.4406781023e+02 1.4671428854e+02 0.0000000000e+00 0.0000e+00 1.0000e+00
<mgrwt>
<rscale>  3 0.19524771E+03</rscale>
<asrwt>0</asrwt>
<pdfrwt beam="1">  1       21 0.35868335E-01 0.19825349E+03</pdfrwt>
<pdfrwt beam="2">  1       21 0.80336649E-01 0.19825349E+03</pdfrwt>
<totfact> 0.10171588E+04</totfact>
</mgrwt>
</event>
<event>
12      1 +1.4674046e+01 1.71570200e+02 7.54677100e-03 1.17622000e-01
       -2 -1    0    0    0  501 -0.0000000000e+00 +0.0000000000e+00 +2.7676837111e+02 2.7676837111e+02 0.0000000000e+00 0.0000e+00 1.0000e+00
        2 -1    0    0  502    0 +0.0000000000e+00 -0.0000000000e+00 -1.1153240237e+02 1.1153240237e+02 0.0000000000e+00 0.0000e+00 -1.0000e+00
        6  2    1    2  502    0 +1.0750491159e+01 -1.9048022436e+01 +4.0047913520e+01 1.7450611690e+02 1.6843440634e+02 0.0000e+00 0.0000e+00
       24  2    3    3    0    0 +4.8140232948e+01 -5.2617374816e+01 -1.0815199785e+00 1.0940147413e+02 8.2954461581e+01 0.0000e+00 0.0000e+00
       -6  2    1    2    0  501 -1.0750491159e+01 +1.9048022436e+01 +1.2518805521e+02 2.1379465658e+02 1.7192354636e+02 0.0000e+00 0.0000e+00
      -24  2    5    5    0    0 +2.7703241348e+01 -2.6627542438e+01 +1.2508393208e+02 1.5390269041e+02 8.1015754341e+01 0.0000e+00 0.0000e+00
        5  1    3    3  502    0 -3.7389741790e+01 +3.3569352380e+01 +4.1129433498e+01 6.5104642770e+01 4.7000000000e+00 0.0000e+00 -1.0000e+00
      -13  1    4    4    0    0 +3.0640360993e+01 +1.8398858413e+01 -5.3410939776e+00 3.6136920145e+01 0.0000000000e+00 0.0000e+00 1.0000e+00
       14  1    4    4    0    0 +1.7499871955e+01 -7.1016233228e+01 +4.2595739991e+00 7.3264553988e+01 0.0000000000e+00 0.0000e+00 -1.0000e+00
       -5  1    5    5    0  501 -3.8453732507e+01 +4.5675564874e+01 +1.0412312892e-01 5.9891966171e+01 4.7000000000e+00 0.0000e+00 1.0000e+00
       13  1    6    6    0    0 +8.5579888695e+00 -3.4176668411e+01 +9.4851825317e+00 3.6486333397e+01 0.0000000000e+00 0.0000e+00 -1.0000e+00
      -14  1    6    6    0    0 +1.9145252478e+01 +7.5491259726e+00 +1.1559874955e+02 1.1741635701e+02 0.0000000000e+00 0.0000e+00 1.0000e+00
<mgrwt>
<rscale>  2 0.17157022E+03</rscale>
<asrwt>0</asrwt>
<pdfrwt beam="2">  1        2 0.17158831E-01 0.17157022E+03</pdfrwt>
<pdfrwt beam="1">  1       -2 0.42579749E-01 0.17157022E+03</pdfrwt>
<totfact> 0.17216805E+03</totfact>
</mgrwt>
</event>
<event>
14      3 +1.4674046e+01 3.42074200e+02 7.54677100e-03 1.06621700e-01
       21 -1    0    0  503  502 +0.0000000000e+00 +0.0000000000e+00 +1.4413569083e+03 1.4413569083e+03 0.0000000000e+00 0.0000e+00 -1.0000e+00
       21 -1    0    0  505  503 -0.0000000000e+00 -0.0000000000e+00 -1.2909514402e+03 1.2909514402e+03 0.0000000000e+00 0.0000e+00 1.0000e+00
        6  2    1    2  501    0 -8.1527096711e+01 -2.9438026060e+02 +1.3156876187e+03 1.3612999756e+03 1.6969769642e+02 0.0000e+00 0.0000e+00
       24  2    3    3    0    0 -3.8695424085e+01 -5.2824092261e+01 +3.2334945276e+02 3.3907638936e+02 7.8295648981e+01 0.0000e+00 0.0000e+00
       -6  2    1    2    0  502 -6.0730268102e+01 +2.0906914781e+02 -1.1234762666e+02 3.0124738660e+02 1.7529952848e+02 0.0000e+00 0.0000e+00
      -24  2    5    5    0    0 -7.9736767334e+00 +1.2878701836e+02 +1.7882701232e+00 1.5199065751e+02 8.0301223168e+01 0.0000e+00 0.0000e+00
        5  1    3    3  501    0 -4.2831672627e+01 -2.4155616834e+02 +9.9233816596e+02 1.0222235862e+03 4.7000000000e+00 0.0000e+00 -1.0000e+00
      -13  1    4    4    0    0 -5.5928443913e+01 -5.6020177110e+01 +2.1085030319e+02 2.2522011774e+02 0.0000000000e+00 0.0000e+00 1.0000e+00
       14  1    4    4    0    0 +1.7233019828e+01 +3.1960848483e+00 +1.1249914958e+02 1.1385627162e+02 0.0000000000e+00 0.0000e+00 -1.0000e+00
       -5  1    5    5    0  502 -5.2756591369e+01 +8.0282129451e+01 -1.1413589678e+02 1.4925672908e+02 4.7000000000e+00 0.0000e+00 1.0000e+00
       13  1    6    6    0    0 -1.6987698616e+01 -5.0506418209e+00 +2.1234934574e+00 1.7849372861e+01 0.0000000000e+00 0.0000e+00 -1.0000e+00
      -14  1    6    6    0    0 +9.0140218827e+00 +1.3383766018e+02 -3.3522333420e-01 1.3414128465e+02 0.0000000000e+00 0.0000e+00 1.0000e+00
       21  1    1    2  504  501 +8.6564642955e+01 +9.9075493326e+01 -7.2100884312e+02 7.3291414412e+02 0.0000000000e+00 0.0000e+00 1.0000e+00
       21  1    1    2  505  504 +5.5692721858e+01 -1.3764380541e+01 -3.3192568083e+02 3.3684684210e+02 0.0000000000e+00 0.0000e+00 1.0000e+00
<mgrwt>
<rscale>  4 0.34136283E+03</rscale>
<asrwt>0</asrwt>
<pdfrwt beam="1">  1       21 0.22174722E+00 0.34207420E+03</pdfrwt>
<pdfrwt beam="2">  1       21 0.19860791E+00 0.34207420E+03</pdfrwt>
<totfact> 0.10953558E+01</totfact>
</mgrwt>
</event>
<event>
13      2 +1.4674046e+01 1.91140400e+02 7.54677100e-03 1.15764200e-01
       21 -1    0    0  504  502 +0.0000000000e+00 +0.0000000000e+00 +3.5665847702e+02 3.5665847702e+02 0.0000000000e+00 0.0000e+00 -1.0000e+00
       21 -1    0    0  501  503 -0.0000000000e+00 -0.0000000000e+00 -1.6867073430e+02 1.6867073430e+02 0.0000000000e+00 0.0000e+00 -1.0000e+00
        6  2    1    2  501    0 +3.3494706666e+01 +7.4965905192e+01 +1.5773638857e+02 2.4843881988e+02 1.7349148864e+02 0.0000e+00 0.0000e+00
       24  2    3    3    0    0 +2.6699778088e+01 +1.1011453482e+02 +7.5415098987e+01 1.5854731896e+02 8.1312522190e+01 0.0000e+00 0.0000e+00
       -6  2    1    2    0  502 +1.7735200339e+00 -7.6924439703e+01 +8.7343886188e+01 2.0975440343e+02 1.7449194969e+02 0.0000e+00 0.0000e+00
      -24  2    5    5    0    0 -3.3751602388e+01 -3.7391980732e+01 +1.1559189952e+02 1.4938147993e+02 8.0099990159e+01 0.0000e+00 0.0000e+00
        5  1    3    3  501    0 +6.7949285778e+00 -3.5148629630e+01 +8.2321289585e+01 8.9891500923e+01 4.7000000000e+00 0.0000e+00 -1.0000e+00
      -13  1    4    4    0    0 +9.1533609613e+00 +8.2132438379e+01 +9.0223502072e+01 1.2235114130e+02 0.0000000000e+00 0.0000e+00 1.0000e+00
       14  1    4    4    0    0 +1.7546417127e+01 +2.7982096443e+01 -1.4808403084e+01 3.6196177661e+01 0.0000000000e+00 0.0000e+00 -1.0000e+00
       -5  1    5    5    0  502 +3.5525122422e+01 -3.9532458971e+01 -2.8248013333e+01 6.0372923506e+01 4.7000000000e+00 0.0000e+00 1.0000e+00
       13  1    6    6    0    0 +1.8769344825e+01 +9.2620157955e+00 +1.1730933997e+01 2.3993500249e+01 0.0000000000e+00 0.0000e+00 -1.0000e+00
      -14  1    6    6    0    0 -5.2520947213e+01 -4.6653996528e+01 +1.0386096552e+02 1.2538797968e+02 0.0000000000e+00 0.0000e+00 1.0000e+00
       21  1    1    2  504  503 -3.5268226700e+01 +1.9585345112e+00 -5.7092532039e+01 6.7135988014e+01 0.0000000000e+00 0.0000e+00 -1.0000e+00
<mgrwt>
<rscale>  3 0.19091181E+03</rscale>
<asrwt>0</asrwt>
<pdfrwt beam="1">  1       21 0.54870535E-01 0.19114044E+03</pdfrwt>
<pdfrwt beam="2">  1       21 0.25949344E-01 0.19114044E+03</pdfrwt>
<totfact> 0.44248623E+04</totfact>
</mgrwt>
</event>
<event>
14      3 +1.4674046e+01 1.84931000e+02 7.54677100e-03 1.16473800e-01
       21 -1    0    0  502  503 +0.0000000000e+00 +0.0000000000e+00 +3.9931943613e+02 3.9931943613e+02 0.0000000000e+00 0.0000e+00 1.0000e+00
        2 -1    0    0  501    0 -0.0000000000e+00 -0.0000000000e+00 -1.4996258203e+03 1.4996258203e+03 0.0000000000e+00 0.0000e+00 1.0000e+00
        6  2    1    2  501    0 +1.1363977774e+02 -4.4394159555e+01 -1.2044323880e+02 2.4234255378e+02 1.7128484788e+02 0.0000e+00 0.0000e+00
       24  2    3    3    0    0 +1.2609258742e+02 +1.2665147831e+01 -9.4729685001e+01 1.7835729082e+02 8.2327780209e+01 0.0000e+00 0.0000e+00
       -6  2    1    2    0  504 +4.0401536498e+00 -1.3110592439e+02 -5.4055785439e+02 5.8414086230e+02 1.7836105746e+02 0.0000e+00 0.0000e+00
      -24  2    5    5    0    0 -5.4195823484e+01 -1.2782873790e+02 -3.8768026334e+02 4.2044658375e+02 8.4864419477e+01 0.0000e+00 0.0000e+00
        5  1    3    3  501    0 -1.2452809678e+01 -5.7059307386e+01 -2.5713553799e+01 6.3985262969e+01 4.7000000000e+00 0.0000e+00 -1.0000e+00
      -13  1    4    4    0    0 +2.0255482724e+01 -3.0516500351e+01 -2.6851137599e+01 4.5415030160e+01 0.0000000000e+00 0.0000e+00 1.0000e+00
       14  1    4    4    0    0 +1.0583710470e+02 +4.3181648183e+01 -6.7878547403e+01 1.3294226066e+02 0.0000000000e+00 0.0000e+00 -1.0000e+00
       -5  1    5    5    0  504 +5.8235977134e+01 -3.2771864923e+00 -1.5287759105e+02 1.6369427855e+02 4.7000000000e+00 0.0000e+00 1.0000e+00
       13  1    6    6    0    0 -5.7401918773e+01 -1.1199379642e+02 -2.3203971361e+02 2.6396973199e+02 0.0000000000e+00 0.0000e+00 -1.0000e+00
      -14  1    6    6    0    0 +3.2060952883e+00 -1.5834941483e+01 -1.5564054972e+02 1.5647685176e+02 0.0000000000e+00 0.0000e+00 1.0000e+00
       21  1    1    2  504  503 -8.4059972417e+01 +3.4080428253e+01 +3.0288259492e+02 3.1617308687e+02 0.0000000000e+00 0.0000e+00 1.0000e+00
        2  1    1    2  502    0 -3.3619958978e+01 +1.4141965569e+02 -7.4218788594e+02 7.5628875351e+02 0.0000000000e+00 0.0000e+00 1.0000e+00
<mgrwt>
<rscale>  4 0.18320319E+03</rscale>
<asrwt>0</asrwt>
<pdfrwt beam="1">  1       21 0.61433761E-01 0.18493101E+03</pdfrwt>
<pdfrwt beam="2">  1        2 0.23071166E+00 0.18493101E+03</pdfrwt>
<totfact> 0.43506885E+02</totfact>
</mgrwt>
</event>
<event>
12      1 +1.4674046e+01 2.20784000e+02 7.54677100e-03 1.13388700e-01
       21 -1    0    0  501  502 +0.0000000000e+00 +0.0000000000e+00 +1.8283644433e+02 1.8283644433e+02 0.0000000000e+00 0.0000e+00 -1.0000e+00
       21 -1    0    0  502  503 -0.0000000000e+00 -0.0000000000e+00 -2.6819694562e+02 2.6819694562e+02 0.0000000000e+00 0.0000e+00 1.0000e+00
       -6  2    1    2    0  503 -4.5138850425e+01 +1.2624570928e+02 -7.4283285228e+01 2.2997171819e+02 1.7144529674e+02 0.0000e+00 0.0000e+00
      -24  2    3    3    0    0 -5.5747292138e+00 +1.2126133934e+02 -9.7249871727e-01 1.4638508619e+02 8.1806220302e+01 0.0000e+00 0.0000e+00
        6  2    1    2  501    0 +4.5138850425e+01 -1.2624570928e+02 -1.1077216059e+01 2.2106167176e+02 1.7541397628e+02 0.0000e+00 0.0000e+00
       24  2    5    5    0    0 +5.1273571124e+01 -9.3974646292e+01 -7.1943629781e+01 1.5173731367e+02 7.9925673301e+01 0.0000e+00 0.0000e+00
        5  1    5    5  501    0 -6.1347206998e+00 -3.2271062986e+01 +6.0866413722e+01 6.9324358084e+01 4.7000000000e+00 0.0000e+00 -1.0000e+00
      -13  1    6    6    0    0 +3.0169036923e-01 -7.3716460874e+01 -6.1277123567e+01 9.5859759511e+01 0.0000000000e+00 0.0000e+00 1.0000e+00
       14  1    6    6    0    0 +5.0971880755e+01 -2.0258185418e+01 -1.0666506214e+01 5.5877554161e+01 0.0000000000e+00 0.0000e+00 -1.0000e+00
       -5  1    3    3    0  503 -3.9564121211e+01 +4.9843699349e+00 -7.3310786511e+01 8.3586632003e+01 4.7000000000e+00 0.0000e+00 1.0000e+00
       13  1    4    4    0    0 -1.0176913762e+01 +1.3297994765e+02 +2.2557641210e+00 1.3338787248e+02 0.0000000000e+00 0.0000e+00 -1.0000e+00
      -14  1    4    4    0    0 +4.6021845479e+00 -1.1718608312e+01 -3.2282628383e+00 1.2997213714e+01 0.0000000000e+00 0.0000e+00 1.0000e+00
<mgrwt>
<rscale>  2 0.21999479E+03</rscale>
<asrwt>0</asrwt>
<pdfrwt beam="1">  1       21 0.28128684E-01 0.22078396E+03</pdfrwt>
<pdfrwt beam="2">  1       21 0.41261068E-01 0.22078396E+03</pdfrwt>
<totfact> 0.67473291E+04</totfact>
</mgrwt>
</event>
<event>
13      2 +1.4674046e+01 2.54838700e+02 7.54677100e-03 1.11029800e-01
       21 -1    0    0  504  502 +0.0000000000e+00 +0.0000000000e+00 +2.6545509303e+02 2.6545509303e+02 0.0000000000e+00 0.0000e+00 1.0000e+00
       21 -1    0    0  502  503 -0.0000000000e+00 -0.0000000000e+00 -3.0250997549e+02 3.0250997549e+02 0.0000000000e+00 0.0000e+00 1.0000e+00
       -6  2    1    2    0  503 -3.6504835905e+01 -1.8312490122e+02 -1.4281708447e+02 2.9212919490e+02 1.7342264675e+02 0.0000e+00 0.0000e+00
      -24  2    3    3    0    0 -2.8660640780e+01 -1.6820884070e+01 -5.9058542989e+01 1.0569920593e+02 8.1117422073e+01 0.0000e+00 0.0000e+00
        6  2    1    2  504    0 +3.6504835905e+01 +1.8312490122e+02 +1.0576220201e+02 2.7583587362e+02 1.7329874007e+02 0.0000e+00 0.0000e+00
       24  2    5    5    0    0 +8.7804343659e+01 +1.3332583016e+02 +9.9085863932e+01 1.9941471962e+02 6.6804507448e+01 0.0000e+00 0.0000e+00
        5  1    5    5  501    0 -4.5786976934e+01 +2.9672221707e+01 +9.0789901956e-01 5.4770450778e+01 4.7000000000e+00 0.0000e+00 -1.0000e+00
      -13  1    6    6    0    0 +6.0452287616e+01 +1.3253596061e+02 +8.2293194797e+01 1.6730938361e+02 0.0000000000e+00 0.0000e+00 1.0000e+00
       14  1    6    6    0    0 +2.7352056043e+01 +7.8986955071e-01 +1.6792669134e+01 3.2105336010e+01 0.0000000000e+00 0.0000e+00 -1.0000e+00
       -5  1    3    3    0  503 -7.8441951254e+00 -1.6630401715e+02 -8.3758541481e+01 1.8642998897e+02 4.7000000000e+00 0.0000e+00 1.0000e+00
       13  1    4    4    0    0 -1.8243986704e+01 +1.9307542037e+01 +8.9146717645e+00 2.8019557509e+01 0.0000000000e+00 0.0000e+00 -1.0000e+00
      -14  1    4    4    0    0 -1.0416654076e+01 -3.6128426106e+01 -6.7973214754e+01 7.7679648422e+01 0.0000000000e+00 0.0000e+00 1.0000e+00
       21  1    5    5  504  501 -5.5125308200e+00 +2.0126849352e+01 +5.7684390554e+00 2.1650703222e+01 0.0000000000e+00 0.0000e+00 1.0000e+00
<mgrwt>
<rscale>  3 0.25481759E+03</rscale>
<asrwt>0</asrwt>
<pdfrwt beam="1">  1       21 0.40839245E-01 0.25483867E+03</pdfrwt>
<pdfrwt beam="2">  1       21 0.46539996E-01 0.25483867E+03</pdfrwt>
<totfact> 0.24731206E+04</totfact>
</mgrwt>
</event>
<event>
13      2 +1.4674046e+01 2.77640400e+02 7.54677100e-03 1.09717900e-01
       21 -1    0    0  503  502 +0.0000000000e+00 +0.0000000000e+00 +4.3198115558e+01 4.3198115558e+01 0.0000000000e+00 0.0000e+00 -1.0000e+00
       21 -1    0    0  504  503 -0.0000000000e+00 -0.0000000000e+00 -2.8062878886e+03 2.8062878886e+03 0.0000000000e+00 0.0000e+00 1.0000e+00
        6  2    1    2  501    0 -1.1490199407e+02 -1.8329296380e+02 -8.3084248933e+02 8.7564134014e+02 1.7219098601e+02 0.0000e+00 0.0000e+00
       24  2    3    3    0    0 -5.5761537145e+01 -1.9210808461e+02 -6.1135687175e+02 6.4810820778e+02 7.9196964277e+01 0.0000e+00 0.0000e+00
       -6  2    1    2    0  502 +6.3107817377e+01 +2.1059765941e+02 -9.6906434951e+02 1.0088837592e+03 1.7443266687e+02 0.0000e+00 0.0000e+00
      -24  2    5    5    0    0 +4.6604238026e+01 +3.1563635942e+01 -4.1889182365e+02 4.3005956488e+02 7.9452195106e+01 0.0000e+00 0.0000e+00
        5  1    3    3  501    0 -5.9140456922e+01 +8.8151208039e+00 -2.1948561758e+02 2.2753313236e+02 4.7000000000e+00 0.0000e+00 -1.0000e+00
      -13  1    4    4    0    0 +1.1554667320e+01 -9.2049652679e-01 -4.8548367835e+01 4.9912940909e+01 0.0000000000e+00 0.0000e+00 1.0000e+00
       14  1    4    4    0    0 -6.7316204465e+01 -1.9118758808e+02 -5.6280850392e+02 5.9819526687e+02 0.0000000000e+00 0.0000e+00 -1.0000e+00
       -5  1    5    5    0  502 +1.6503579351e+01 +1.7903402347e+02 -5.5017252586e+02 5.7882419430e+02 4.7000000000e+00 0.0000e+00 1.0000e+00
       13  1    6    6    0    0 +4.9336955331e+00 +1.2574333562e+01 -6.2481403365e+00 1.4882690409e+01 0.0000000000e+00 0.0000e+00 -1.0000e+00
      -14  1    6    6    0    0 +4.1670542493e+01 +1.8989302381e+01 -4.1264368331e+02 4.1517687447e+02 0.0000000000e+00 0.0000e+00 1.0000e+00
       21  1    1    2  504  501 +5.1794176690e+01 -2.7304695608e+01 -9.6318293421e+02 9.6496090485e+02 0.0000000000e+00 0.0000e+00 -1.0000e+00
<mgrwt>
<rscale>  3 0.27728900E+03</rscale>
<asrwt>0</asrwt>
<pdfrwt beam="1">  1       21 0.66458621E-02 0.27764038E+03</pdfrwt>
<pdfrwt beam="2">  1       21 0.43173672E+00 0.27764038E+03</pdfrwt>
<totfact> 0.81039026E+02</totfact>
</mgrwt>
</event>
<event>
14      3 +1.4674046e+01 1.85947600e+02 7.54677100e-03 1.16594100e-01
       21 -1    0    0  503  502 +0.0000000000e+00 +0.0000000000e+00 +4.8478827790e+02 4.8478827790e+02 0.0000000000e+00 0.0000e+00 1.0000e+00
       21 -1    0    0  501  503 -0.0000000000e+00 -0.0000000000e+00 -6.1902648701e+02 6.1902648701e+02 0.0000000000e+00 0.0000e+00 -1.0000e+00
        6  2    1    2  501    0 -2.3825152656e+01 +1.3024319292e+01 -4.9941718735e+02 5.2722834904e+02 1.6677809872e+02 0.0000e+00 0.0000e+00
       24  2    3    3    0    0 +3.9602137245e+01 +1.2449308033e+01 -3.8653357049e+02 3.9765924509e+02 8.3674127085e+01 0.0000e+00 0.0000e+00
       -6  2    1    2    0  505 +4.6649825053e+01 -1.2895957252e+02 +4.4675129158e+01 2.3270505546e+02 1.8261708066e+02 0.0000e+00 0.0000e+00
      -24  2    5    5    0    0 -3.8996968478e+01 -2.1162384213e+01 +7.5545807807e+00 9.0031889934e+01 7.7974736026e+01 0.0000e+00 0.0000e+00
        5  1    3    3  501    0 -6.3427289901e+01 +5.7501125869e-01 -1.1288361686e+02 1.2956910394e+02 4.7000000000e+00 0.0000e+00 -1.0000e+00
      -13  1    4    4    0    0 +1.3662739369e+01 +2.6448641667e+01 -3.9935668265e+01 4.9810226790e+01 0.0000000000e+00 0.0000e+00 1.0000e+00
       14  1    4    4    0    0 +2.5939397877e+01 -1.3999333634e+01 -3.4659790223e+02 3.4784901830e+02 0.0000000000e+00 0.0000e+00 -1.0000e+00
       -5  1    5    5    0  505 +8.5646793530e+01 -1.0779718831e+02 +3.7120548377e+01 1.4267316552e+02 4.7000000000e+00 0.0000e+00 1.0000e+00
       13  1    6    6    0    0 -1.7782120058e+01 -4.2690307413e+01 +2.7514143381e+01 5.3811655120e+01 0.0000000000e+00 0.0000e+00 -1.0000e+00
      -14  1    6    6    0    0 -2.1214848420e+01 +2.1527923200e+01 -1.9959562601e+01 3.6220234814e+01 0.0000000000e+00 0.0000e+00 1.0000e+00
       21  1    1    2  504  502 +1.0086023008e+01 +4.4410280940e+01 +1.0525136736e+02 1.1468152093e+02 0.0000000000e+00 0.0000e+00 1.0000e+00
       21  1    1    2  505  504 -3.2910695405e+01 +7.1524972286e+01 +2.1525248172e+02 2.2919983949e+02 0.0000000000e+00 0.0000e+00 1.0000e+00
<mgrwt>
<rscale>  4 0.18193747E+03</rscale>
<asrwt>0</asrwt>
<pdfrwt beam="1">  1       21 0.74582812E-01 0.18594763E+03</pdfrwt>
<pdfrwt beam="2">  1       21 0.95234844E-01 0.18594763E+03</pdfrwt>
<totfact> 0.14922967E+03</totfact>
</mgrwt>
</event>
<event>
12      1 +1.4674046e+01 2.19494900e+02 7.54677100e-03 1.13437800e-01
       21 -1    0    0  501  502 +0.0000000000e+00 +0.0000000000e+00 +1.5374460486e+02 1.5374460486e+02 0.0000000000e+00 0.0000e+00 -1.0000e+00
       21 -1    0    0  502  503 -0.0000000000e+00 -0.0000000000e+00 -4.9578187103e+02 4.9578187103e+02 0.0000000000e+00 0.0000e+00 1.0000e+00
       -6  2    1    2    0  503 +3.7391435001e+01 +1.2924978739e+02 -3.6834174628e+02 4.2846105899e+02 1.7262563560e+02 0.0000e+00 0.0000e+00
      -24  2    3    3    0    0 +6.2570557059e+01 +4.5383425881e+01 -2.9198321414e+02 3.1218436222e+02 7.8931291142e+01 0.0000e+00 0.0000e+00
        6  2    1    2  501    0 -3.7391435001e+01 -1.2924978739e+02 +2.6304480112e+01 2.2106541689e+02 1.7341962380e+02 0.0000e+00 0.0000e+00
       24  2    5    5    0    0 +4.5609216607e+00 -1.3196762745e+02 +6.7917147127e+01 1.6172663581e+02 6.4082050181e+01 0.0000e+00 0.0000e+00
        5  1    5    5  501    0 -4.1952356661e+01 +2.7178400601e+00 -4.1612667014e+01 5.9338781080e+01 4.7000000000e+00 0.0000e+00 -1.0000e+00
      -13  1    6    6    0    0 -2.7858380262e+01 -8.1252698827e+01 +4.7573078484e+01 9.8190061687e+01 0.0000000000e+00 0.0000e+00 1.0000e+00
       14  1    6    6    0    0 +3.2419301923e+01 -5.0714928624e+01 +2.0344068643e+01 6.3536574125e+01 0.0000000000e+00 0.0000e+00 -1.0000e+00
       -5  1    3    3    0  503 -2.5179122059e+01 +8.3866361510e+01 -7.6358532141e+01 1.1627669677e+02 4.7000000000e+00 0.0000e+00 1.0000e+00
       13  1    4    4    0    0 +2.6641612753e+01 +4.0381691829e+01 -5.8557647879e+01 7.5956926545e+01 0.0000000000e+00 0.0000e+00 -1.0000e+00
      -14  1    4    4    0    0 +3.5928944307e+01 +5.0017340527e+00 -2.3342556626e+02 2.3622743568e+02 0.0000000000e+00 0.0000e+00 1.0000e+00
<mgrwt>
<rscale>  2 0.21933800E+03</rscale>
<asrwt>0</asrwt>
<pdfrwt beam="1">  1       21 0.23653016E-01 0.21949486E+03</pdfrwt>
<pdfrwt beam="2">  1       21 0.76274134E-01 0.21949486E+03</pdfrwt>
<totfact> 0.25385022E+04</totfact>
</mgrwt>
</event>
<event>
13      2 +1.4674046e+01 2.57885800e+02 7.54677100e-03 1.12281400e-01
       21 -1    0    0  501  502 +0.0000000000e+00 +0.0000000000e+00 +8.6230630933e+02 8.6230630933e+02 0.0000000000e+00 0.0000e+00 -1.0000e+00
       21 -1    0    0  504  503 -0.0000000000e+00 -0.0000000000e+00 -2.7276133924e+02 2.7276133924e+02 0.0000000000e+00 0.0000e+00 1.0000e+00
        6  2    1    2  501    0 -8.3077980765e+01 +1.4710793164e+02 -1.3711375473e+02 2.7634755891e+02 1.7036753545e+02 0.0000e+00 0.0000e+00
       24  2    3    3    0    0 -4.0857304794e+01 +1.5047401221e+02 -1.4955012161e+02 2.3195533888e+02 8.4417371774e+01 0.0000e+00 0.0000e+00
       -6  2    1    2    0  503 -4.4459661575e+01 +1.2162217398e+00 +1.0692893710e+02 2.0885016846e+02 1.7380004193e+02 0.0000e+00 0.0000e+00
      -24  2    5    5    0    0 -4.1051465389e+01 -6.1871344545e+01 +8.9260811237e+01 1.4307852189e+02 8.3610315857e+01 0.0000e+00 0.0000e+00
        5  1    3    3  501    0 -4.2220675971e+01 -3.3660805633e+00 +1.2436366876e+01 4.4392220026e+01 4.7000000000e+00 0.0000e+00 1.0000e+00
      -13  1    4    4    0    0 +2.4474071186e+01 +5.6365515919e+01 -6.5891436856e+01 9.0098462784e+01 0.0000000000e+00 0.0000e+00 1.0000e+00
       14  1    4    4    0    0 -6.5331375980e+01 +9.4108496288e+01 -8.3658684752e+01 1.4185687610e+02 0.0000000000e+00 0.0000e+00 -1.0000e+00
       -5  1    5    5    0  503 -3.4081961859e+00 +6.3087566285e+01 +1.7668125867e+01 6.5771646571e+01 4.7000000000e+00 0.0000e+00 1.0000e+00
       13  1    6    6    0    0 -6.5392818811e+01 -3.2647337621e+01 +6.6114440406e+01 9.8555510429e+01 0.0000000000e+00 0.0000e+00 -1.0000e+00
      -14  1    6    6    0    0 +2.4341353422e+01 -2.9224006924e+01 +2.3146370831e+01 4.4523011463e+01 0.0000000000e+00 0.0000e+00 1.0000e+00
       21  1    1    2  504  502 +1.2753764234e+02 -1.4832415338e+02 +6.1972978772e+02 6.4986992120e+02 0.0000000000e+00 0.0000e+00 -1.0000e+00
<mgrwt>
<rscale>  3 0.23551935E+03</rscale>
<asrwt>0</asrwt>
<pdfrwt beam="1">  1       21 0.13266251E+00 0.25788582E+03</pdfrwt>
<pdfrwt beam="2">  1       21 0.41963283E-01 0.25788582E+03</pdfrwt>
<totfact> 0.21281164E+03</totfact>
</mgrwt>
</event>
<event>
13      2 +1.4674046e+01 3.78569400e+02 7.54677100e-03 1.06888700e-01
       21 -1    0    0  501  503 +0.0000000000e+00 +0.0000000000e+00 +4.7891986710e+02 4.7891986710e+02 0.0000000000e+00 0.0000e+00 -1.0000e+00
        1 -1    0    0  503    0 -0.0000000000e+00 -0.0000000000e+00 -2.3054787765e+03 2.3054787765e+03 0.0000000000e+00 0.0000e+00 -1.0000e+00
        6  2    1    2  501    0 -2.1520452237e+02 +1.2069707291e+02 +1.1212277140e+02 3.2157184826e+02 1.7307850205e+02 0.0000e+00 0.0000e+00
       24  2    3    3    0    0 -1.2238843294e+02 +7.7346510907e+01 +1.3854288131e+02 2.1567468168e+02 7.9749778000e+01 0.0000e+00 0.0000e+00
       -6  2    1    2    0  502 +1.2782849315e+01 +1.5714996278e+02 +1.9387734989e+02 3.0273848039e+02 1.7088782481e+02 0.0000e+00 0.0000e+00
      -24  2    5    5    0    0 +1.9285473413e+00 +1.8362684995e+02 +1.5246843470e+02 2.5218524426e+02 8.1413970081e+01 0.0000e+00 0.0000e+00
        5  1    3    3  501    0 -9.2816089425e+01 +4.3350562006e+01 -2.6420109905e+01 1.0589716658e+02 4.7000000000e+00 0.0000e+00 -1.0000e+00
      -13  1    4    4    0    0 -7.5214910723e+00 -1.2259145958e+01 +3.2327053628e+01 3.5382169009e+01 0.0000000000e+00 0.0000e+00 1.0000e+00
       14  1    4    4    0    0 -1.1486694187e+02 +8.9605656865e+01 +1.0621582768e+02 1.8029251268e+02 0.0000000000e+00 0.0000e+00 -1.0000e+00
       -5  1    5    5    0  502 +1.0854301974e+01 -2.6476887174e+01 +4.1408915189e+01 5.0553236127e+01 4.7000000000e+00 0.0000e+00 1.0000e+00
       13  1    6    6    0    0 +2.2298936985e+00 +1.1544248730e+02 +1.4229102246e+02 1.8324485088e+02 0.0000000000e+00 0.0000e+00 -1.0000e+00
      -14  1    6    6    0    0 -3.0134635727e-01 +6.8184362657e+01 +1.0177412242e+01 6.8940393388e+01 0.0000000000e+00 0.0000e+00 1.0000e+00
        1  1    1    2  502    0 +2.0242167305e+02 -2.7784703569e+02 -2.1325590307e+03 2.1600883149e+03 0.0000000000e+00 0.0000e+00 -1.0000e+00
<mgrwt>
<rscale>  3 0.33513578E+03</rscale>
<asrwt>0</asrwt>
<pdfrwt beam="1">  1       21 0.73679978E-01 0.37856939E+03</pdfrwt>
<pdfrwt beam="2">  1        1 0.35468905E+00 0.37856939E+03</pdfrwt>
<totfact> 0.35245433E+01</totfact>
</mgrwt>
</event>
<event>
13      2 +1.4674046e+01 2.33463100e+02 7.54677100e-03 1.12434600e-01
       21 -1    0    0  504  502 +0.0000000000e+00 +0.0000000000e+00 +3.7670148111e+02 3.7670148111e+02 0.0000000000e+00 0.0000e+00 -1.0000e+00
       21 -1    0    0  502  503 -0.0000000000e+00 -0.0000000000e+00 -5.1179907576e+02 5.1179907576e+02 0.0000000000e+00 0.0000e+00 1.0000e+00
        6  2    1    2  501    0 +1.3231018786e+02 -2.5328487243e+01 +2.6123106315e+02 3.4049785098e+02 1.7189997119e+02 0.0000e+00 0.0000e+00
       24  2    3    3    0    0 +7.2976552724e+01 -2.8818168225e+01 +5.4311336824e+01 1.2515969535e+02 8.0988665655e+01 0.0000e+00 0.0000e+00
       -6  2    1    2    0  503 -1.5582911328e+02 +3.2189944131e+01 -4.3950801661e+02 4.9835719781e+02 1.7284008475e+02 0.0000e+00 0.0000e+00
      -24  2    5    5    0    0 -9.4645673716e+01 +3.0991481387e+01 -1.3424912561e+02 1.8698936048e+02 8.3808816568e+01 0.0000e+00 0.0000e+00
        5  1    3    3  501    0 +5.9333635133e+01 +3.4896809816e+00 +2.0691972632e+02 2.1533815563e+02 4.7000000000e+00 0.0000e+00 -1.0000e+00
      -13  1    4    4    0    0 -1.7612885661e+00 +1.9087069954e+01 -3.1319451607e+00 1.9422344280e+01 0.0000000000e+00 0.0000e+00 1.0000e+00
       14  1    4    4    0    0 +7.4737841290e+01 -4.7905238178e+01 +5.7443281985e+01 1.0573735107e+02 0.0000000000e+00 0.0000e+00 -1.0000e+00
       -5  1    5    5    0  503 -6.1183439568e+01 +1.1984627442e+00 -3.0525889100e+02 3.1136783733e+02 4.7000000000e+00 0.0000e+00 1.0000e+00
       13  1    6    6    0    0 -3.0538792608e+01 +8.7833848951e+00 +4.9280017811e+00 3.2156661919e+01 0.0000000000e+00 0.0000e+00 -1.0000e+00
      -14  1    6    6    0    0 -6.4106881108e+01 +2.2208096492e+01 -1.3917712740e+02 1.5483269857e+02 0.0000000000e+00 0.0000e+00 1.0000e+00
       21  1    1    2  504  501 +2.3518925428e+01 -6.8614568880e+00 +4.3179358817e+01 4.9645508072e+01 0.0000000000e+00 0.0000e+00 -1.0000e+00
<mgrwt>
<rscale>  3 0.23328910E+03</rscale>
<asrwt>0</asrwt>
<pdfrwt beam="1">  1       21 0.57954074E-01 0.23346308E+03</pdfrwt>
<pdfrwt beam="2">  1       21 0.78738319E-01 0.23346308E+03</pdfrwt>
<totfact> 0.38567726E+03</totfact>
</mgrwt>
</event>
<event>
14      3 +1.4674046e+01 3.19022200e+02 7.54677100e-03 1.07621800e-01
       21 -1    0    0  501  503 +0.0000000000e+00 +0.0000000000e+00 +2.9231911770e+02 2.9231911770e+02 0.0000000000e+00 0.0000e+00 1.0000e+00
        1 -1    0    0  504    0 -0.0000000000e+00 -0.0000000000e+00 -8.1224665632e+02 8.1224665632e+02 0.0000000000e+00 0.0000e+00 1.0000e+00
        6  2    1    2  501    0 +2.2897258737e+02 -1.2276508840e+02 +2.5847044567e+01 3.1292552310e+02 1.7249521905e+02 0.0000e+00 0.0000e+00
       24  2    3    3    0    0 +2.3727013068e+02 -8.3699129802e+01 +4.3778442480e+01 2.6889572208e+02 8.4176588705e+01 0.0000e+00 0.0000e+00
       -6  2    1    2    0  502 -2.4220838103e+02 +1.4591938127e+02 -1.2330312758e+02 3.5251779686e+02 1.7060999432e+02 0.0000e+00 0.0000e+00
      -24  2    5    5    0    0 -8.7719589366e+01 +1.2663600938e+02 -6.5755214344e+01 1.8646814315e+02 8.1946415202e+01 0.0000e+00 0.0000e+00
        5  1    3    3  501    0 -8.2975433111e+00 -3.9065958594e+01 -1.7931397913e+01 4.4029801010e+01 4.7000000000e+00 0.0000e+00 -1.0000e+00
      -13  1    4    4    0    0 +6.2630686113e+01 -3.9255565466e+01 -2.1903141053e+01 7.7093124538e+01 0.0000000000e+00 0.0000e+00 1.0000e+00
       14  1    4    4    0    0 +1.7463944457e+02 -4.4443564336e+01 +6.5681583533e+01 1.9180259755e+02 0.0000000000e+00 0.0000e+00 -1.0000e+00
       -5  1    5    5    0  502 -1.5448879166e+02 +1.9283371890e+01 -5.7547913234e+01 1.6604965371e+02 4.7000000000e+00 0.0000e+00 1.0000e+00
       13  1    6    6    0    0 -3.3748985764e+00 +4.1539298958e+01 +1.2321667482e+01 4.3459484441e+01 0.0000000000e+00 0.0000e+00 -1.0000e+00
      -14  1    6    6    0    0 -8.4344690789e+01 +8.5096710426e+01 -7.8076881826e+01 1.4300865871e+02 0.0000000000e+00 0.0000e+00 1.0000e+00
       21  1    1    2  504  503 -2.5924210842e+01 -1.3037474358e+01 -2.1496663239e+01 3.6112975172e+01 0.0000000000e+00 0.0000e+00 -1.0000e+00
        1  1    1    2  502    0 +3.9160004497e+01 -1.0116818519e+01 -4.0097479237e+02 4.0300947890e+02 0.0000000000e+00 0.0000e+00 1.0000e+00
<mgrwt>
<rscale>  4 0.31876807E+03</rscale>
<asrwt>0</asrwt>
<pdfrwt beam="1">  1       21 0.44972172E-01 0.31902222E+03</pdfrwt>
<pdfrwt beam="2">  1        1 0.12496102E+00 0.31902222E+03</pdfrwt>
<totfact> 0.11314066E+03</totfact>
</mgrwt>
</event>
<event>
14      3 +1.4674046e+01 1.91166300e+02 7.54677100e-03 1.15858600e-01
       21 -1    0    0  501  502 +0.0000000000e+00 +0.0000000000e+00 +1.3542425726e+03 1.3542425726e+03 0.0000000000e+00 0.0000e+00 1.0000e+00
       21 -1    0    0  505  503 -0.0000000000e+00 -0.0000000000e+00 -8.2874571124e+02 8.2874571124e+02 0.0000000000e+00 0.0000e+00 -1.0000e+00
       -6  2    1    2    0  503 -9.2556308502e+01 +1.8944448017e+01 -7.8783876156e+01 2.0726760778e+02 1.6681546612e+02 0.0000e+00 0.0000e+00
      -24  2    3    3    0    0 -3.1599593159e+01 -5.0054643840e+01 -3.0162560942e+01 1.0304324347e+02 7.8766289008e+01 0.0000e+00 0.0000e+00
        6  2    1    2  501    0 +3.5699128741e+01 -4.8999220996e+01 +5.6393112446e+01 1.9139002549e+02 1.7255320129e+02 0.0000e+00 0.0000e+00
       24  2    5    5    0    0 +2.2354827279e+01 -9.9871322432e+01 +3.8911184406e+01 1.3576854678e+02 8.0280749100e+01 0.0000e+00 0.0000e+00
        5  1    5    5  501    0 +1.3344301462e+01 +5.0872101436e+01 +1.7481928040e+01 5.5621478711e+01 4.7000000000e+00 0.0000e+00 -1.0000e+00
      -13  1    6    6    0    0 +3.0428819932e+01 -6.4041502850e+01 -1.3093535065e+01 7.2101787982e+01 0.0000000000e+00 0.0000e+00 1.0000e+00
       14  1    6    6    0    0 -8.0739926528e+00 -3.5829819581e+01 +5.2004719471e+01 6.3666758798e+01 0.0000000000e+00 0.0000e+00 -1.0000e+00
       -5  1    3    3    0  503 -6.0956715343e+01 +6.8999091857e+01 -4.8621315214e+01 1.0422436431e+02 4.7000000000e+00 0.0000e+00 1.0000e+00
       13  1    4    4    0    0 -2.1620697037e+01 -5.7223674196e+01 -5.0472207035e+01 7.9306034523e+01 0.0000000000e+00 0.0000e+00 -1.0000e+00
      -14  1    4    4    0    0 -9.9788961222e+00 +7.1690303555e+00 +2.0309646093e+01 2.3737208945e+01 0.0000000000e+00 0.0000e+00 1.0000e+00
       21  1    1    2  504  502 +5.9810480352e+01 +5.9614647380e+00 +1.1650958639e+03 1.1666452780e+03 0.0000000000e+00 0.0000e+00 1.0000e+00
       21  1    1    2  505  504 -2.9533005908e+00 +2.4093308241e+01 -6.1720823879e+02 6.1768537260e+02 0.0000000000e+00 0.0000e+00 -1.0000e+00
<mgrwt>
<rscale>  4 0.18986237E+03</rscale>
<asrwt>0</asrwt>
<pdfrwt beam="1">  1       21 0.20834501E+00 0.19116632E+03</pdfrwt>
<pdfrwt beam="2">  1       21 0.12749934E+00 0.19116632E+03</pdfrwt>
<totfact> 0.54075439E+01</totfact>
</mgrwt>
</event>
<event>
12      1 +1.4674046e+01 2.42350100e+02 7.54677100e-03 1.11829600e-01
       21 -1    0    0  503  502 +0.0000000000e+00 +0.0000000000e+00 +1.6687246012e+02 1.6687246012e+02 0.0000000000e+00 0.0000e+00 -1.0000e+00
       21 -1    0    0  501  503 -0.0000000000e+00 -0.0000000000e+00 -4.0938339349e+02 4.0938339349e+02 0.0000000000e+00 0.0000e+00 -1.0000e+00
        6  2    1    2  501    0 -1.0427727661e+02 -1.3270375460e+02 -2.2956965605e+02 3.3356050992e+02 1.7342534388e+02 0.0000e+00 0.0000e+00
       24  2    3    3    0    0 -1.0152397309e+02 -2.8739895692e+01 -9.4136189563e+01 1.6273785778e+02 8.0553643327e+01 0.0000e+00 0.0000e+00
       -6  2    1    2    0  502 +1.0427727661e+02 +1.3270375460e+02 -1.2941277326e+01 2.4269534370e+02 1.7392388074e+02 0.0000e+00 0.0000e+00
      -24  2    5    5    0    0 +6.1442636929e+00 +1.4656902718e+01 -2.9500201495e+01 8.8223872435e+01 8.1612578722e+01 0.0000e+00 0.0000e+00
        5  1    3    3  501    0 -2.7533035166e+00 -1.0396385891e+02 -1.3543346648e+02 1.7082265214e+02 4.7000000000e+00 0.0000e+00 -1.0000e+00
      -13  1    4    4    0    0 -2.4752367832e+01 +1.7685738852e+01 -5.9008244123e+01 6.6388537765e+01 0.0000000000e+00 0.0000e+00 1.0000e+00
       14  1    4    4    0    0 -7.6771605259e+01 -4.6425634544e+01 -3.5127945440e+01 9.6349320017e+01 0.0000000000e+00 0.0000e+00 -1.0000e+00
       -5  1    5    5    0  502 +9.8133012915e+01 +1.1804685189e+02 +1.6558924169e+01 1.5447147126e+02 4.7000000000e+00 0.0000e+00 1.0000e+00
       13  1    6    6    0    0 +4.2813912401e+01 -1.5852016050e+00 -1.8264812719e+01 4.6574105927e+01 0.0000000000e+00 0.0000e+00 -1.0000e+00
      -14  1    6    6    0    0 -3.6669648708e+01 +1.6242104323e+01 -1.1235388776e+01 4.1649766508e+01 0.0000000000e+00 0.0000e+00 1.0000e+00
<mgrwt>
<rscale>  2 0.24226063E+03</rscale>
<asrwt>0</asrwt>
<pdfrwt beam="1">  1       21 0.25672686E-01 0.24235006E+03</pdfrwt>
<pdfrwt beam="2">  1       21 0.62982060E-01 0.24235006E+03</pdfrwt>
<totfact> 0.32773970E+04</totfact>
</mgrwt>
</event>
<event>
12      1 +1.4674046e+01 2.36168800e+02 7.54677100e-03 1.12269100e-01
       21 -1    0    0  501  502 +0.0000000000e+00 +0.0000000000e+00 +4.8705621672e+02 4.8705621672e+02 0.0000000000e+00 0.0000e+00 -1.0000e+00
       21 -1    0    0  502  503 -0.0000000000e+00 -0.0000000000e+00 -2.0383687966e+02 2.0383687966e+02 0.0000000000e+00 0.0000e+00 -1.0000e+00
       -6  2    1    2    0  503 -1.5731212478e+02 +1.5832427834e+01 -8.8531025394e+01 2.5046824277e+02 1.7291277513e+02 0.0000e+00 0.0000e+00
      -24  2    3    3    0    0 -6.2836854912e+01 +3.3442598560e+01 -1.0825575056e+02 1.5224986611e+02 7.9961468647e+01 0.0000e+00 0.0000e+00
        6  2    1    2  501    0 +1.5731212478e+02 -1.5832427834e+01 +3.7175036245e+02 4.4042485361e+02 1.7543645378e+02 0.0000e+00 0.0000e+00
       24  2    5    5    0    0 +4.1895536395e+01 +3.6721002587e+01 +9.3872791245e+01 1.3494017886e+02 7.9328953946e+01 0.0000e+00 0.0000e+00
        5  1    5    5  501    0 +1.1541658839e+02 -5.2553430421e+01 +2.7787757121e+02 3.0548467475e+02 4.7000000000e+00 0.0000e+00 -1.0000e+00
      -13  1    6    6    0    0 -1.3364201014e+01 +2.2588643293e+01 +6.6863604373e+01 7.1830287932e+01 0.0000000000e+00 0.0000e+00 1.0000e+00
       14  1    6    6    0    0 +5.5259737408e+01 +1.4132359294e+01 +2.7009186872e+01 6.3109890929e+01 0.0000000000e+00 0.0000e+00 -1.0000e+00
       -5  1    3    3    0  503 -9.4475269869e+01 -1.7610170726e+01 +1.9724725169e+01 9.8218376656e+01 4.7000000000e+00 0.0000e+00 1.0000e+00
       13  1    4    4    0    0 -6.8854535313e+01 +1.0167493596e+01 -4.0891542799e+01 8.0724489665e+01 0.0000000000e+00 0.0000e+00 -1.0000e+00
      -14  1    4    4    0    0 +6.0176804014e+00 +2.3275104964e+01 -6.7364207764e+01 7.1525376449e+01 0.0000000000e+00 0.0000e+00 1.0000e+00
<mgrwt>
<rscale>  2 0.23570029E+03</rscale>
<asrwt>0</asrwt>
<pdfrwt beam="1">  1       21 0.74931726E-01 0.23616884E+03</pdfrwt>
<pdfrwt beam="2">  1       21 0.31359520E-01 0.23616884E+03</pdfrwt>
<totfact> 0.15167915E+04</totfact>
</mgrwt>
</event>
<event>
12      2 +1.4674046e+01 3.09742600e+02 7.54677100e-03 1.10020800e-01
       21 -1    0    0  503  502 +0.0000000000e+00 +0.0000000000e+00 +1.2120794341e+02 1.2120794341e+02 0.0000000000e+00 0.0000e+00 -1.0000e+00
       21 -1    0    0  504  503 -0.0000000000e+00 -0.0000000000e+00 -7.8165644005e+02 7.8165644005e+02 0.0000000000e+00 0.0000e+00 1.0000e+00
      -24  2    1    2    0    0 -6.9350107174e+01 +1.2659683132e+02 -5.0361075195e+02 5.2958802933e+02 7.7482231924e+01 0.0000e+00 0.0000e+00
        6  2    1    2  501    0 -1.9948477459e+00 -3.4675213172e+01 -6.6773351615e+01 1.8893156494e+02 1.7329196727e+02 0.0000e+00 0.0000e+00
       24  2    4    4    0    0 +3.6625571273e+01 -7.4375275867e+01 -5.9119847539e+01 1.3282186999e+02 8.5284105455e+01 0.0000e+00 0.0000e+00
        5  1    4    4  501    0 -3.8620419019e+01 +3.9700062695e+01 -7.6535040757e+00 5.6109694954e+01 4.7000000000e+00 0.0000e+00 -1.0000e+00
      -13  1    5    5    0    0 +4.1272876656e+00 +1.9322710252e+01 -1.0344886631e+01 2.2302876818e+01 0.0000000000e+00 0.0000e+00 1.0000e+00
       14  1    5    5    0    0 +3.2498283607e+01 -9.3697986119e+01 -4.8774960908e+01 1.1051899317e+02 0.0000000000e+00 0.0000e+00 -1.0000e+00
       -5  1    1    2    0  502 -2.4222089880e+00 -7.1778548143e+01 -8.3894693355e+00 7.2460335810e+01 4.7000000000e+00 0.0000e+00 1.0000e+00
       13  1    3    3    0    0 +1.2235465721e+01 +4.6096222418e+00 -1.7741267592e+01 2.2038779784e+01 0.0000000000e+00 0.0000e+00 -1.0000e+00
      -14  1    3    3    0    0 -8.1585572895e+01 +1.2198720908e+02 -4.8586948436e+02 5.0754924954e+02 0.0000000000e+00 0.0000e+00 1.0000e+00
       21  1    1    2  504  501 +7.3767163908e+01 -2.0143070007e+01 -8.1674923745e+01 1.1188445338e+02 0.0000000000e+00 0.0000e+00 1.0000e+00
<mgrwt>
<rscale>  3 0.27188145E+03</rscale>
<asrwt>0</asrwt>
<pdfrwt beam="1">  1       21 0.18647376E-01 0.30974260E+03</pdfrwt>
<pdfrwt beam="2">  1       21 0.12025484E+00 0.30974260E+03</pdfrwt>
<totfact> 0.12946210E+04</totfact>
</mgrwt>
</event>
<event>
13      2 +1.4674046e+01 2.45904700e+02 7.54677100e-03 1.11608200e-01
       21 -1    0    0  503  502 +0.0000000000e+00 +0.0000000000e+00 +9.7696473405e+02 9.7696473405e+02 0.0000000000e+00 0.0000e+00 -1.0000e+00
       21 -1    0    0  501  503 -0.0000000000e+00 -0.0000000000e+00 -1.3274544821e+02 1.3274544821e+02 0.0000000000e+00 0.0000e+00 1.0000e+00
        6  2    1    2  501    0 +8.0051977677e+01 -1.6213207358e+02 +1.2165441438e+02 2.7797144231e+02 1.7254911703e+02 0.0000e+00 0.0000e+00
       24  2    3    3    0    0 +5.2876384222e+01 -1.5593968723e+02 +3.4508448945e+01 1.8635611706e+02 8.0154047030e+01 0.0000e+00 0.0000e+00
       -6  2    1    2    0  504 +1.8418641063e+00 +1.7494197642e+02 +2.4738538181e+02 3.4938384745e+02 1.7395820805e+02 0.0000e+00 0.0000e+00
      -24  2    5    5    0    0 -2.8105309513e+01 +4.8467697039e+01 +1.7562305062e+02 2.0084261166e+02 7.9719964053e+01 0.0000e+00 0.0000e+00
        5  1    3    3  501    0 +2.7175593455e+01 -6.1923863524e+00 +8.7145965440e+01 9.1615325251e+01 4.7000000000e+00 0.0000e+00 -1.0000e+00
      -13  1    4    4    0    0 +6.6321898838e+00 -7.1459260100e+01 -2.1534683710e+01 7.4927661109e+01 0.0000000000e+00 0.0000e+00 1.0000e+00
       14  1    4    4    0    0 +4.6244194338e+01 -8.4480427132e+01 +5.6043132654e+01 1.1142845595e+02 0.0000000000e+00 0.0000e+00 -1.0000e+00
       -5  1    5    5    0  504 +2.9947173620e+01 +1.2647427938e+02 +7.1762331188e+01 1.4854123579e+02 4.7000000000e+00 0.0000e+00 1.0000e+00
       13  1    6    6    0    0 +2.6697196790e+01 +1.8115224220e+01 +3.9542654473e+01 5.1034529367e+01 0.0000000000e+00 0.0000e+00 -1.0000e+00
      -14  1    6    6    0    0 -5.4802506304e+01 +3.0352472820e+01 +1.3608039615e+02 1.4980808229e+02 0.0000000000e+00 0.0000e+00 1.0000e+00
       21  1    1    2  504  502 -8.1893841784e+01 -1.2809902840e+01 +4.7517948965e+02 4.8235489250e+02 0.0000000000e+00 0.0000e+00 -1.0000e+00
<mgrwt>
<rscale>  3 0.24565558E+03</rscale>
<asrwt>0</asrwt>
<pdfrwt beam="1">  1       21 0.15030226E+00 0.24590466E+03</pdfrwt>
<pdfrwt beam="2">  1       21 0.20422377E-01 0.24590466E+03</pdfrwt>
<totfact> 0.63454623E+03</totfact>
</mgrwt>
</event>
<event>
13      2 +1.4674046e+01 1.72229400e+02 7.54677100e-03 1.17652800e-01
       21 -1    0    0  503  502 +0.0000000000e+00 +0.0000000000e+00 +2.8753494875e+01 2.8753494875e+01 0.0000000000e+00 0.0000e+00 -1.0000e+00
       21 -1    0    0  501  503 -0.0000000000e+00 -0.0000000000e+00 -1.0111138570e+03 1.0111138570e+03 0.0000000000e+00 0.0000e+00 -1.0000e+00
        6  2    1    2  501    0 +1.2508138047e+01 +2.8045445507e+01 -5.0943214454e+02 5.3655427876e+02 1.6560912907e+02 0.0000e+00 0.0000e+00
       24  2    3    3    0    0 -5.0917197076e+00 +6.1135732161e+01 -1.9599724158e+02 2.2085149059e+02 8.1221664794e+01 0.0000e+00 0.0000e+00
       -6  2    1    2    0  502 -1.2508138047e+01 -2.8045445507e+01 -4.7292821760e+02 5.0331307313e+02 1.6946961395e+02 0.0000e+00 0.0000e+00
      -24  2    5    5    0    0 +1.9411652690e+01 +3.4600622775e+01 -2.4468045036e+02 2.6102989725e+02 8.1817291020e+01 0.0000e+00 0.0000e+00
        5  1    3    3  501    0 +1.7599857755e+01 -3.3090286654e+01 -3.1343490296e+02 3.1570278817e+02 4.7000000000e+00 0.0000e+00 -1.0000e+00
      -13  1    4    4    0    0 -2.6942188394e+01 +1.0463899689e+01 -1.3721600187e+02 1.4022697987e+02 0.0000000000e+00 0.0000e+00 1.0000e+00
       14  1    4    4    0    0 +2.1850468686e+01 +5.0671832472e+01 -5.8781239706e+01 8.0624510723e+01 0.0000000000e+00 0.0000e+00 -1.0000e+00
       -5  1    5    5    0  504 -7.5010322535e+00 -4.8707836961e+01 -1.7741518703e+02 1.8419271824e+02 4.7000000000e+00 0.0000e+00 1.0000e+00
       13  1    6    6    0    0 -2.4870585207e+01 -8.8211285871e+00 -1.0381136830e+02 1.0711283073e+02 0.0000000000e+00 0.0000e+00 -1.0000e+00
      -14  1    6    6    0    0 +4.4282237897e+01 +4.3421751362e+01 -1.4086908207e+02 1.5391706652e+02 0.0000000000e+00 0.0000e+00 1.0000e+00
       21  1    5    5  504  502 -2.4418758483e+01 -1.3938231320e+01 -5.0832580207e+01 5.8090457639e+01 0.0000000000e+00 0.0000e+00 1.0000e+00
<mgrwt>
<rscale>  3 0.17127210E+03</rscale>
<asrwt>0</asrwt>
<pdfrwt beam="1">  1       21 0.44236136E-02 0.17222935E+03</pdfrwt>
<pdfrwt beam="2">  1       21 0.15555601E+00 0.17222935E+03</pdfrwt>
<totfact> 0.90751357E+04</totfact>
</mgrwt>
</event>
<event>
12      1 +1.4674046e+01 2.38174800e+02 7.54677100e-03 1.12116900e-01
       21 -1    0    0  503  502 +0.0000000000e+00 +0.0000000000e+00 +1.6666023018e+02 1.6666023018e+02 0.0000000000e+00 0.0000e+00 -1.0000e+00
       21 -1    0    0  501  503 -0.0000000000e+00 -0.0000000000e+00 -4.5318030806e+02 4.5318030806e+02 0.0000000000e+00 0.0000e+00 -1.0000e+00
        6  2    1    2  501    0 +3.4025372120e+01 -1.5897984036e+02 -2.9856891055e+02 3.8136119602e+02 1.7280234922e+02 0.0000e+00 0.0000e+00
       24  2    3    3    0    0 +3.3920740624e+01 -1.6802705746e+01 -1.6126229168e+02 1.8365043218e+02 7.9303259430e+01 0.0000e+00 0.0000e+00
       -6  2    1    2    0  502 -3.4025372120e+01 +1.5897984036e+02 +1.2048832669e+01 2.3847934221e+02 1.7405432113e+02 0.0000e+00 0.0000e+00
      -24  2    5    5    0    0 -7.8317027156e+01 +1.0695884097e+02 +4.6650895340e+01 1.6175041791e+02 8.0082090719e+01 0.0000e+00 0.0000e+00
        5  1    3    3  501    0 +1.0463149653e-01 -1.4217713461e+02 -1.3730661887e+02 1.9771076385e+02 4.7000000000e+00 0.0000e+00 -1.0000e+00
      -13  1    4    4    0    0 +5.9205561648e+00 +3.1310251100e+01 -5.1083987355e+01 6.0207628863e+01 0.0000000000e+00 0.0000e+00 1.0000e+00
       14  1    4    4    0    0 +2.8000184459e+01 -4.8112956846e+01 -1.1017830432e+02 1.2344280331e+02 0.0000000000e+00 0.0000e+00 -1.0000e+00
       -5  1    5    5    0  502 +4.4291655036e+01 +5.2020999387e+01 -3.4602062671e+01 7.6728924300e+01 4.7000000000e+00 0.0000e+00 1.0000e+00
       13  1    6    6    0    0 +1.0297016663e+01 +4.6388513569e+01 +1.5589181111e+01 5.0009452217e+01 0.0000000000e+00 0.0000e+00 -1.0000e+00
      -14  1    6    6    0    0 -8.8614043819e+01 +6.0570327404e+01 +3.1061714229e+01 1.1174096570e+02 0.0000000000e+00 0.0000e+00 1.0000e+00
<mgrwt>
<rscale>  2 0.23794610E+03</rscale>
<asrwt>0</asrwt>
<pdfrwt beam="1">  1       21 0.25640036E-01 0.23817477E+03</pdfrwt>
<pdfrwt beam="2">  1       21 0.69720046E-01 0.23817477E+03</pdfrwt>
<totfact> 0.26332091E+04</totfact>
</mgrwt>
</event>
<event>
13      2 +1.4674046e+01 2.38630200e+02 7.54677100e-03 1.12163900e-01
       21 -1    0    0  504  502 +0.0000000000e+00 +0.0000000000e+00 +1.2329226213e+02 1.2329226213e+02 0.0000000000e+00 0.0000e+00 1.0000e+00
       21 -1    0    0  501  503 -0.0000000000e+00 -0.0000000000e+00 -9.6378587995e+02 9.6378587995e+02 0.0000000000e+00 0.0000e+00 -1.0000e+00
        6  2    1    2  501    0 -1.5682821753e+02 -1.0208755006e+02 -7.2695642675e+02 7.7195124611e+02 1.8007254728e+02 0.0000e+00 0.0000e+00
       24  2    3    3    0    0 -5.5646380054e+01 +2.6469631895e+01 -2.5278959031e+02 2.7033287319e+02 7.3349330828e+01 0.0000e+00 0.0000e+00
       -6  2    1    2    0  502 +1.1421514106e+02 +9.9048685475e+01 -4.4338924411e+01 2.3380341171e+02 1.7274939816e+02 0.0000e+00 0.0000e+00
      -24  2    5    5    0    0 +5.6172296621e+01 +1.2514229469e+02 -5.9302528840e+01 1.6826069518e+02 7.7323675477e+01 0.0000e+00 0.0000e+00
        5  1    3    3  501    0 -1.0118183747e+02 -1.2855718196e+02 -4.7416683644e+02 5.0161837292e+02 4.7000000000e+00 0.0000e+00 -1.0000e+00
      -13  1    4    4    0    0 -3.3321874968e+01 +9.4890170186e+00 -3.0134818075e+01 4.5918362948e+01 0.0000000000e+00 0.0000e+00 1.0000e+00
       14  1    4    4    0    0 -2.2324505086e+01 +1.6980614876e+01 -2.2265477223e+02 2.2441451024e+02 0.0000000000e+00 0.0000e+00 -1.0000e+00
       -5  1    5    5    0  502 +5.8042844435e+01 -2.6093609211e+01 +1.4963604429e+01 6.5542716523e+01 4.7000000000e+00 0.0000e+00 1.0000e+00
       13  1    6    6    0    0 +2.8870257942e+01 +3.9120883382e+01 -6.0985781872e+01 7.7994877401e+01 0.0000000000e+00 0.0000e+00 -1.0000e+00
      -14  1    6    6    0    0 +2.7302038679e+01 +8.6021411305e+01 +1.6832530323e+00 9.0265817781e+01 0.0000000000e+00 0.0000e+00 1.0000e+00
       21  1    1    2  504  503 +4.2613076473e+01 +3.0388645863e+00 -6.9198266664e+01 8.1323484269e+01 0.0000000000e+00 0.0000e+00 1.0000e+00
<mgrwt>
<rscale>  3 0.23724911E+03</rscale>
<asrwt>0</asrwt>
<pdfrwt beam="1">  1       21 0.18968041E-01 0.23863020E+03</pdfrwt>
<pdfrwt beam="2">  1       21 0.14827475E+00 0.23863020E+03</pdfrwt>
<totfact> 0.75914176E+03</totfact>
</mgrwt>
</event>
<event>
13      2 +1.4674046e+01 1.92703200e+02 7.54677100e-03 1.15733200e-01
       21 -1    0    0  504  502 +0.0000000000e+00 +0.0000000000e+00 +3.7026222074e+02 3.7026222074e+02 0.0000000000e+00 0.0000e+00 -1.0000e+00
       21 -1    0    0  501  503 -0.0000000000e+00 -0.0000000000e+00 -2.0431730115e+02 2.0431730115e+02 0.0000000000e+00 0.0000e+00 -1.0000e+00
        6  2    1    2  501    0 +1.0089349220e+02 +6.3940780356e+00 -9.3744051179e+00 1.9784381321e+02 1.6980551802e+02 0.0000e+00 0.0000e+00
       24  2    3    3    0    0 -1.0958516048e+01 +3.4229129551e+01 +1.8647045742e+00 8.1938380077e+01 7.3611810348e+01 0.0000e+00 0.0000e+00
       -6  2    1    2    0  502 -6.1484119962e+01 +4.4935732579e+01 +2.2461097372e+02 2.9538760029e+02 1.7608017440e+02 0.0000e+00 0.0000e+00
      -24  2    5    5    0    0 -5.3917621125e+01 -2.3519326406e+01 +1.9691743855e+02 2.2100770451e+02 8.1287509903e+01 0.0000e+00 0.0000e+00
        5  1    3    3  501    0 +1.1185200825e+02 -2.7835051515e+01 -1.1239109692e+01 1.1590543313e+02 4.7000000000e+00 0.0000e+00 -1.0000e+00
      -13  1    4    4    0    0 +7.5051259432e+00 +7.2242355251e+00 -3.2716878552e+01 3.4335268115e+01 0.0000000000e+00 0.0000e+00 1.0000e+00
       14  1    4    4    0    0 -1.8463641991e+01 +2.7004894025e+01 +3.4581583127e+01 4.7603111962e+01 0.0000000000e+00 0.0000e+00 -1.0000e+00
       -5  1    5    5    0  502 -7.5664988368e+00 +6.8455058985e+01 +2.7693535175e+01 7.4379895777e+01 4.7000000000e+00 0.0000e+00 1.0000e+00
       13  1    6    6    0    0 -2.3048338559e+01 -3.6012667790e+01 +3.3737283602e+01 5.4464139179e+01 0.0000000000e+00 0.0000e+00 -1.0000e+00
      -14  1    6    6    0    0 -3.0869282566e+01 +1.2493341384e+01 +1.6318015495e+02 1.6654356533e+02 0.0000000000e+00 0.0000e+00 1.0000e+00
       21  1    1    2  504  503 -3.9409372239e+01 -5.1329810614e+01 -4.9291649017e+01 8.1348108403e+01 0.0000000000e+00 0.0000e+00 -1.0000e+00
<mgrwt>
<rscale>  3 0.19125802E+03</rscale>
<asrwt>0</asrwt>
<pdfrwt beam="1">  1       21 0.56963419E-01 0.19270320E+03</pdfrwt>
<pdfrwt beam="2">  1       21 0.31433431E-01 0.19270320E+03</pdfrwt>
<totfact> 0.28166265E+04</totfact>
</mgrwt>
</event>
<event>
12      1 +1.4674046e+01 2.26471500e+02 7.54677100e-03 1.12923500e-01
       21 -1    0    0  501  502 +0.0000000000e+00 +0.0000000000e+00 +3.5477841426e+02 3.5477841426e+02 0.0000000000e+00 0.0000e+00 -1.0000e+00
       21 -1    0    0  502  503 -0.0000000000e+00 -0.0000000000e+00 -1.8948386429e+02 1.8948386429e+02 0.0000000000e+00 0.0000e+00 -1.0000e+00
       -6  2    1    2    0  503 +7.9463767859e+01 +1.2214333947e+02 +2.1552815451e+02 3.1228655627e+02 1.7273396324e+02 0.0000e+00 0.0000e+00
      -24  2    3    3    0    0 +9.9406829096e+00 -2.8699351360e+00 +9.7317462663e+01 1.2665887558e+02 8.0403535493e+01 0.0000e+00 0.0000e+00
        6  2    1    2  501    0 -7.9463767859e+01 -1.2214333947e+02 -5.0233604534e+01 2.3197572228e+02 1.7336618737e+02 0.0000e+00 0.0000e+00
       24  2    5    5    0    0 -2.5710955095e+00 -1.2188711688e+02 -1.7271383693e+01 1.4818343914e+02 8.2443624050e+01 0.0000e+00 0.0000e+00
        5  1    5    5  501    0 -7.6892672349e+01 -2.5622258978e-01 -3.2962220841e+01 8.3792283140e+01 4.7000000000e+00 0.0000e+00 -1.0000e+00
      -13  1    6    6    0    0 +3.2148428259e+01 -4.4577585435e+01 +1.5838405615e+01 5.7197357064e+01 0.0000000000e+00 0.0000e+00 1.0000e+00
       14  1    6    6    0    0 -3.4719523769e+01 -7.7309531450e+01 -3.3109789307e+01 9.0986082077e+01 0.0000000000e+00 0.0000e+00 -1.0000e+00
       -5  1    3    3    0  503 +6.9523084949e+01 +1.2501327461e+02 +1.1821069185e+02 1.8562768069e+02 4.7000000000e+00 0.0000e+00 1.0000e+00
       13  1    4    4    0    0 -9.2452878308e-01 +3.8307413734e+01 +4.2114945223e+01 5.6938399272e+01 0.0000000000e+00 0.0000e+00 -1.0000e+00
      -14  1    4    4    0    0 +1.0865211693e+01 -4.1177348870e+01 +5.5202517440e+01 6.9720476309e+01 0.0000000000e+00 0.0000e+00 1.0000e+00
<mgrwt>
<rscale>  2 0.22635046E+03</rscale>
<asrwt>0</asrwt>
<pdfrwt beam="1">  1       21 0.54581295E-01 0.22647146E+03</pdfrwt>
<pdfrwt beam="2">  1       21 0.29151364E-01 0.22647146E+03</pdfrwt>
<totfact> 0.35109506E+04</totfact>
</mgrwt>
</event>
<event>
12      1 +1.4674046e+01 1.84798800e+02 7.54677100e-03 1.16323800e-01
       -2 -1    0    0    0  501 -0.0000000000e+00 +0.0000000000e+00 +8.9910734809e+01 8.9910734809e+01 0.0000000000e+00 0.0000e+00 -1.0000e+00
        2 -1    0    0  502    0 +0.0000000000e+00 -0.0000000000e+00 -3.8270503469e+02 3.8270503469e+02 0.0000000000e+00 0.0000e+00 1.0000e+00
        6  2    1    2  502    0 -8.6953606248e+00 -6.4809375211e+01 -1.2570151058e+02 2.2327885549e+02 1.7255930324e+02 0.0000e+00 0.0000e+00
       24  2    3    3    0    0 -5.1775287539e+01 -8.9781398329e+01 -1.1056036509e+02 1.7102154664e+02 7.9267869914e+01 0.0000e+00 0.0000e+00
       -6  2    1    2    0  501 +8.6953606248e+00 +6.4809375211e+01 -1.6709278930e+02 2.4933691401e+02 1.7312721346e+02 0.0000e+00 0.0000e+00
      -24  2    5    5    0    0 +5.8725693325e+01 +2.8580848591e+01 -4.8208453884e+01 1.1528052461e+02 8.1853358918e+01 0.0000e+00 0.0000e+00
        5  1    3    3  502    0 +4.3079926915e+01 +2.4972023118e+01 -1.5141145499e+01 5.2257308853e+01 4.7000000000e+00 0.0000e+00 -1.0000e+00
      -13  1    4    4    0    0 -1.0873375540e+01 -3.5455907771e+01 -9.3972939075e+01 1.0102606085e+02 0.0000000000e+00 0.0000e+00 1.0000e+00
       14  1    4    4    0    0 -4.0901912000e+01 -5.4325490559e+01 -1.6587426010e+01 6.9995485792e+01 0.0000000000e+00 0.0000e+00 -1.0000e+00
       -5  1    5    5    0  501 -5.0030332700e+01 +3.6228526619e+01 -1.1888433541e+02 1.3405638939e+02 4.7000000000e+00 0.0000e+00 1.0000e+00
       13  1    6    6    0    0 +1.2330777154e+01 +5.1300021969e+01 -2.0023967425e+01 5.6433142662e+01 0.0000000000e+00 0.0000e+00 -1.0000e+00
      -14  1    6    6    0    0 +4.6394916171e+01 -2.2719173377e+01 -2.8184486458e+01 5.8847381950e+01 0.0000000000e+00 0.0000e+00 1.0000e+00
<mgrwt>
<rscale>  2 0.18479880E+03</rscale>
<asrwt>0</asrwt>
<pdfrwt beam="2">  1        2 0.58877697E-01 0.18479880E+03</pdfrwt>
<pdfrwt beam="1">  1       -2 0.13832421E-01 0.18479880E+03</pdfrwt>
<totfact> 0.32232109E+03</totfact>
</mgrwt>
</event>
<event>
13      2 +1.4674046e+01 1.73534000e+02 7.54677100e-03 1.17423600e-01
       21 -1    0    0  501  502 +0.0000000000e+00 +0.0000000000e+00 +1.3385628593e+02 1.3385628593e+02 0.0000000000e+00 0.0000e+00 1.0000e+00
       21 -1    0    0  504  503 -0.0000000000e+00 -0.0000000000e+00 -2.7259941288e+03 2.7259941288e+03 0.0000000000e+00 0.0000e+00 1.0000e+00
        6  2    1    2  501    0 +5.1980983477e+01 -1.8390193525e+01 -9.2895995175e+01 2.0422758385e+02 1.7331768007e+02 0.0000e+00 0.0000e+00
       24  2    3    3    0    0 +7.3379940293e+01 -2.7583676144e+01 -1.2274931017e+02 1.6607334566e+02 7.9796542301e+01 0.0000e+00 0.0000e+00
       -6  2    1    2    0  503 +4.8007992062e+01 -1.2629714840e+01 -2.8442749815e+01 1.8260681556e+02 1.7341275061e+02 0.0000e+00 0.0000e+00
      -24  2    5    5    0    0 +4.1691058649e+01 +5.6451901700e+01 -3.5534607738e+01 1.1271720374e+02 8.0731023133e+01 0.0000e+00 0.0000e+00
        5  1    3    3  501    0 -2.1398956816e+01 +9.1934826183e+00 +2.9853314999e+01 3.8154238190e+01 4.7000000000e+00 0.0000e+00 -1.0000e+00
      -13  1    4    4    0    0 +6.3894215787e+01 -3.9349032158e-01 -3.3196759561e+01 7.2004517157e+01 0.0000000000e+00 0.0000e+00 1.0000e+00
       14  1    4    4    0    0 +9.4857245063e+00 -2.7190185822e+01 -8.9552550613e+01 9.4068828502e+01 0.0000000000e+00 0.0000e+00 -1.0000e+00
       -5  1    5    5    0  503 +6.3169334128e+00 -6.9081616540e+01 +7.0918579227e+00 6.9889611820e+01 4.7000000000e+00 0.0000e+00 1.0000e+00
       13  1    6    6    0    0 +5.1360609373e+01 +2.2602832755e+01 +8.0531178766e+00 5.6689090231e+01 0.0000000000e+00 0.0000e+00 -1.0000e+00
      -14  1    6    6    0    0 -9.6695507233e+00 +3.3849068946e+01 -4.3587725614e+01 5.6028113514e+01 0.0000000000e+00 0.0000e+00 1.0000e+00
       21  1    1    2  504  502 -9.9988975539e+01 +3.1019908365e+01 -2.4707990979e+03 2.4730160153e+03 0.0000000000e+00 0.0000e+00 1.0000e+00
<mgrwt>
<rscale>  3 0.17351027E+03</rscale>
<asrwt>0</asrwt>
<pdfrwt beam="1">  1       21 0.20593273E-01 0.17353402E+03</pdfrwt>
<pdfrwt beam="2">  1       21 0.41938375E+00 0.17353402E+03</pdfrwt>
<totfact> 0.14914541E+02</totfact>
</mgrwt>
</event>
<event>
12      1 +1.4674046e+01 2.93232600e+02 7.54677100e-03 1.08870500e-01
       21 -1    0    0  501  502 +0.0000000000e+00 +0.0000000000e+00 +2.9097695959e+02 2.9097695959e+02 0.0000000000e+00 0.0000e+00 -1.0000e+00
       21 -1    0    0  502  503 -0.0000000000e+00 -0.0000000000e+00 -2.9605014411e+02 2.9605014411e+02 0.0000000000e+00 0.0000e+00 1.0000e+00
       -6  2    1    2    0  503 +7.9983739374e+01 -2.2215502148e+02 +1.2618541279e+01 2.9350398286e+02 1.7388245524e+02 0.0000e+00 0.0000e+00
      -24  2    3    3    0    0 +8.9281761692e+01 -2.1802935960e+02 -2.8663195071e+01 2.5072845176e+02 8.0840232258e+01 0.0000e+00 0.0000e+00
        6  2    1    2  501    0 -7.9983739374e+01 +2.2215502148e+02 -1.7691725796e+01 2.9352312085e+02 1.7347211067e+02 0.0000e+00 0.0000e+00
       24  2    5    5    0    0 -7.7276951640e+01 +5.8185435352e+01 -2.8378737836e+01 1.2911614381e+02 8.0674368224e+01 0.0000e+00 0.0000e+00
        5  1    5    5  501    0 -2.7067877344e+00 +1.6396958612e+02 +1.0687012040e+01 1.6440697704e+02 4.7000000000e+00 0.0000e+00 -1.0000e+00
      -13  1    6    6    0    0 -2.5382797262e+01 -9.1155087185e-01 +2.3740205492e+01 3.4766574157e+01 0.0000000000e+00 0.0000e+00 1.0000e+00
       14  1    6    6    0    0 -5.1894154378e+01 +5.9096986224e+01 -5.2118943328e+01 9.4349569649e+01 0.0000000000e+00 0.0000e+00 -1.0000e+00
       -5  1    3    3    0  503 -9.2980223183e+00 -4.1256618776e+00 +4.1281736349e+01 4.2775531101e+01 4.7000000000e+00 0.0000e+00 1.0000e+00
       13  1    4    4    0    0 -1.4666078539e+01 -4.3620908502e+01 -3.8221474140e+00 4.6178851535e+01 0.0000000000e+00 0.0000e+00 -1.0000e+00
      -14  1    4    4    0    0 +1.0394784023e+02 -1.7440845110e+02 -2.4841047657e+01 2.0454960022e+02 0.0000000000e+00 0.0000e+00 1.0000e+00
<mgrwt>
<rscale>  2 0.29317180E+03</rscale>
<asrwt>0</asrwt>
<pdfrwt beam="1">  1       21 0.44765686E-01 0.29323260E+03</pdfrwt>
<pdfrwt beam="2">  1       21 0.45546176E-01 0.29323260E+03</pdfrwt>
<totfact> 0.21068333E+04</totfact>
</mgrwt>
</event>
<event>
14      3 +1.4674046e+01 4.79422400e+02 7.54677100e-03 1.01929900e-01
       21 -1    0    0  502  503 +0.0000000000e+00 +0.0000000000e+00 +2.1039638188e+02 2.1039638188e+02 0.0000000000e+00 0.0000e+00 -1.0000e+00
       -2 -1    0    0    0  501 -0.0000000000e+00 -0.0000000000e+00 -2.9355214228e+03 2.9355214228e+03 0.0000000000e+00 0.0000e+00 -1.0000e+00
       -6  2    1    2    0  501 -3.0210079095e+02 -3.2502627464e+02 -1.6064058129e+02 5.0231239806e+02 1.7206214514e+02 0.0000e+00 0.0000e+00
      -24  2    3    3    0    0 -1.3419271412e+02 -7.6477232662e+01 -3.9776421864e+01 1.7889319089e+02 8.1019493779e+01 0.0000e+00 0.0000e+00
        6  2    1    2  502    0 +3.0012879935e+02 +3.5866964048e+02 -1.7071753475e+03 1.7783983999e+03 1.7184875473e+02 0.0000e+00 0.0000e+00
       24  2    5    5    0    0 +1.7211973312e+02 +3.0532313866e+02 -1.1771532284e+03 1.2305136428e+03 7.5011202911e+01 0.0000e+00 0.0000e+00
        5  1    5    5  502    0 +1.2800906624e+02 +5.3346501823e+01 -5.3002211913e+02 5.4788475710e+02 4.7000000000e+00 0.0000e+00 -1.0000e+00
      -13  1    6    6    0    0 +4.7511688270e+00 +9.4020643005e+00 -8.8769532490e+00 1.3775801876e+01 0.0000000000e+00 0.0000e+00 1.0000e+00
       14  1    6    6    0    0 +1.6736856429e+02 +2.9592107436e+02 -1.1682762751e+03 1.2167378410e+03 0.0000000000e+00 0.0000e+00 -1.0000e+00
       -5  1    3    3    0  501 -1.6790807683e+02 -2.4854904197e+02 -1.2086415943e+02 3.2341920717e+02 4.7000000000e+00 0.0000e+00 1.0000e+00
       13  1    4    4    0    0 -7.1053526805e+01 -8.4785427895e+01 -2.8293925109e+01 1.1418282994e+02 0.0000000000e+00 0.0000e+00 -1.0000e+00
      -14  1    4    4    0    0 -6.3139187312e+01 +8.3081952332e+00 -1.1482496755e+01 6.4710360949e+01 0.0000000000e+00 0.0000e+00 1.0000e+00
       21  1    1    2  504  503 -2.8966399361e+01 -2.7734793899e+01 -1.0750202468e+02 1.1473864386e+02 0.0000000000e+00 0.0000e+00 -1.0000e+00
       -2  1    1    2    0  504 +3.0938390953e+01 -5.9085719493e+00 -7.4980708742e+02 7.5046836282e+02 0.0000000000e+00 0.0000e+00 -1.0000e+00
<mgrwt>
<rscale>  4 0.47940329E+03</rscale>
<asrwt>0</asrwt>
<pdfrwt beam="1">  1       21 0.32368673E-01 0.47942243E+03</pdfrwt>
<pdfrwt beam="2">  1       -2 0.45161870E+00 0.47942243E+03</pdfrwt>
<totfact> 0.27431347E+00</totfact>
</mgrwt>
</event>
<event>
14      3 +1.4674046e+01 2.52710500e+02 7.54677100e-03 1.11187600e-01
       21 -1    0    0  505  502 +0.0000000000e+00 +0.0000000000e+00 +1.0490114838e+02 1.0490114838e+02 0.0000000000e+00 0.0000e+00 -1.0000e+00
       21 -1    0    0  501  503 -0.0000000000e+00 -0.0000000000e+00 -1.8902414866e+03 1.8902414866e+03 0.0000000000e+00 0.0000e+00 1.0000e+00
        6  2    1    2  501    0 -1.6587205342e+02 +4.4592031961e+01 -4.9597064988e+02 5.5275116006e+02 1.7333485507e+02 0.0000e+00 0.0000e+00
       24  2    3    3    0    0 -1.3780235409e+02 -2.7177925778e+01 -3.7532273747e+02 4.0951414102e+02 8.4300332080e+01 0.0000e+00 0.0000e+00
       -6  2    1    2    0  502 +1.6306640699e+02 +1.6350938081e+02 -2.6938417479e+02 3.9377867839e+02 1.7078595735e+02 0.0000e+00 0.0000e+00
      -24  2    5    5    0    0 +1.3844596647e+01 +3.2881929159e+01 -8.1570013099e+01 1.2059937988e+02 8.1348935260e+01 0.0000e+00 0.0000e+00
        5  1    3    3  501    0 -2.8069699331e+01 +7.1769957739e+01 -1.2064791242e+02 1.4323701904e+02 4.7000000000e+00 0.0000e+00 -1.0000e+00
      -13  1    4    4    0    0 -8.3801253406e+01 -5.7552970021e+01 -2.2342586704e+02 2.4546713119e+02 0.0000000000e+00 0.0000e+00 1.0000e+00
       14  1    4    4    0    0 -5.4001100687e+01 +3.0375044243e+01 -1.5189687043e+02 1.6404700983e+02 0.0000000000e+00 0.0000e+00 -1.0000e+00
       -5  1    5    5    0  502 +1.4922181034e+02 +1.3062745165e+02 -1.8781416169e+02 2.7317929852e+02 4.7000000000e+00 0.0000e+00 1.0000e+00
       13  1    6    6    0    0 +2.2323616864e+01 +4.3902509568e+01 -1.3423400355e+01 5.1048622835e+01 0.0000000000e+00 0.0000e+00 -1.0000e+00
      -14  1    6    6    0    0 -8.4790202171e+00 -1.1020580409e+01 -6.8146612744e+01 6.9550757040e+01 0.0000000000e+00 0.0000e+00 1.0000e+00
       21  1    1    2  504  503 +5.7372755684e+01 -5.5869552443e+01 -2.8432862795e+02 2.9539094207e+02 0.0000000000e+00 0.0000e+00 1.0000e+00
       21  1    1    2  505  504 -5.4567109249e+01 -1.5223186033e+02 -7.3565688558e+02 7.5322185444e+02 0.0000000000e+00 0.0000e+00 1.0000e+00
<mgrwt>
<rscale>  4 0.25227402E+03</rscale>
<asrwt>0</asrwt>
<pdfrwt beam="1">  1       21 0.16138639E-01 0.25271051E+03</pdfrwt>
<pdfrwt beam="2">  1       21 0.29080636E+00 0.25271051E+03</pdfrwt>
<totfact> 0.12357678E+03</totfact>
</mgrwt>
</event>
<event>
13      2 +1.4674046e+01 2.15998900e+02 7.54677100e-03 1.13721700e-01
       21 -1    0    0  501  503 +0.0000000000e+00 +0.0000000000e+00 +3.2651284192e+02 3.2651284192e+02 0.0000000000e+00 0.0000e+00 1.0000e+00
        1 -1    0    0  503    0 -0.0000000000e+00 -0.0000000000e+00 -1.8762626309e+03 1.8762626309e+03 0.0000000000e+00 0.0000e+00 1.0000e+00
        6  2    1    2  501    0 +1.0162187753e+02 +6.5078270113e+01 +1.9080583623e+02 2.8427950437e+02 1.7275931879e+02 0.0000e+00 0.0000e+00
       24  2    3    3    0    0 +9.6519487728e+01 +1.0613492067e+02 +1.5174801420e+02 2.2718934410e+02 8.9481312924e+01 0.0000e+00 0.0000e+00
       -6  2    1    2    0  502 -1.2035749821e+02 -8.3383341740e+01 -5.7395218962e+01 2.3513176178e+02 1.7479709718e+02 0.0000e+00 0.0000e+00
      -24  2    5    5    0    0 -2.3700184499e+01 -9.1574756128e+01 -6.0690372735e+01 1.3795829008e+02 8.0009585392e+01 0.0000e+00 0.0000e+00
        5  1    3    3  501    0 +5.1023898020e+00 -4.1056650561e+01 +3.9057822029e+01 5.7090160261e+01 4.7000000000e+00 0.0000e+00 -1.0000e+00
      -13  1    4    4    0    0 +1.1222830029e+02 +7.7401478001e+01 +1.2248826337e+02 1.8327453409e+02 0.0000000000e+00 0.0000e+00 1.0000e+00
       14  1    4    4    0    0 -1.5708812560e+01 +2.8733442673e+01 +2.9259750837e+01 4.3914810018e+01 0.0000000000e+00 0.0000e+00 -1.0000e+00
       -5  1    5    5    0  502 -9.6657313711e+01 +8.1914143883e+00 +3.2951537732e+00 9.7173471698e+01 4.7000000000e+00 0.0000e+00 1.0000e+00
       13  1    6    6    0    0 +2.8270251683e+01 -2.5824438472e+01 -3.0230755821e+01 4.8785319002e+01 0.0000000000e+00 0.0000e+00 -1.0000e+00
      -14  1    6    6    0    0 -5.1970436182e+01 -6.5750317656e+01 -3.0459616914e+01 8.9172971081e+01 0.0000000000e+00 0.0000e+00 1.0000e+00
        1  1    1    2  502    0 +1.8735620680e+01 +1.8305071627e+01 -1.6831604063e+03 1.6833642067e+03 0.0000000000e+00 0.0000e+00 1.0000e+00
<mgrwt>
<rscale>  3 0.21558626E+03</rscale>
<asrwt>0</asrwt>
<pdfrwt beam="1">  1       21 0.50232745E-01 0.21599888E+03</pdfrwt>
<pdfrwt beam="2">  1        1 0.28865579E+00 0.21599888E+03</pdfrwt>
<totfact> 0.17165860E+02</totfact>
</mgrwt>
</event>
<event>
14      3 +1.4674046e+01 1.74221500e+02 7.54677100e-03 1.17372700e-01
       21 -1    0    0  503  502 +0.0000000000e+00 +0.0000000000e+00 +3.4412386079e+02 3.4412386079e+02 0.0000000000e+00 0.0000e+00 -1.0000e+00
       21 -1    0    0  504  503 -0.0000000000e+00 -0.0000000000e+00 -2.5883040870e+02 2.5883040870e+02 0.0000000000e+00 0.0000e+00 -1.0000e+00
        6  2    1    2  501    0 +1.9449266180e+01 +9.7502466499e+00 -1.3253525850e+01 1.7403895645e+02 1.7216434344e+02 0.0000e+00 0.0000e+00
       24  2    3    3    0    0 +5.1513149377e-01 -3.8965235373e+01 +4.0837609224e+01 9.8675566543e+01 8.0935790459e+01 0.0000e+00 0.0000e+00
       -6  2    1    2    0  505 +4.8891250216e+01 +3.8300910358e+01 +1.3016995366e+01 1.8427570470e+02 1.7300514181e+02 0.0000e+00 0.0000e+00
      -24  2    5    5    0    0 -4.9633715365e+00 +6.9261544042e+01 -2.7813388640e+01 1.0979019349e+02 8.0364827244e+01 0.0000e+00 0.0000e+00
        5  1    3    3  501    0 +1.8934134686e+01 +4.8715482023e+01 -5.4091135074e+01 7.5363389909e+01 4.7000000000e+00 0.0000e+00 -1.0000e+00
      -13  1    4    4    0    0 -3.5323776463e+00 -5.0792724045e+01 -5.0033699655e+00 5.1160651078e+01 0.0000000000e+00 0.0000e+00 1.0000e+00
       14  1    4    4    0    0 +4.0475091401e+00 +1.1827488672e+01 +4.5840979189e+01 4.7514915464e+01 0.0000000000e+00 0.0000e+00 -1.0000e+00
       -5  1    5    5    0  505 +5.3854621752e+01 -3.0960633684e+01 +4.0830384006e+01 7.4485511211e+01 4.7000000000e+00 0.0000e+00 1.0000e+00
       13  1    6    6    0    0 +1.2237174171e+01 -1.5423664235e+00 +1.9384708906e+01 2.2975949714e+01 0.0000000000e+00 0.0000e+00 -1.0000e+00
      -14  1    6    6    0    0 -1.7200545708e+01 +7.0803910465e+01 -4.7198097546e+01 8.6814243772e+01 0.0000000000e+00 0.0000e+00 1.0000e+00
       21  1    1    2  504  501 -4.3488265790e+01 -2.6732025791e+01 -6.9475785754e+01 8.6213196614e+01 0.0000000000e+00 0.0000e+00 -1.0000e+00
       21  1    1    2  505  502 -2.4852250606e+01 -2.1319131217e+01 +1.5500576833e+02 1.5842641172e+02 0.0000000000e+00 0.0000e+00 -1.0000e+00
<mgrwt>
<rscale>  4 0.17401241E+03</rscale>
<asrwt>0</asrwt>
<pdfrwt beam="1">  1       21 0.52942133E-01 0.17422152E+03</pdfrwt>
<pdfrwt beam="2">  1       21 0.39820063E-01 0.17422152E+03</pdfrwt>
<totfact> 0.20776623E+04</totfact>
</mgrwt>
</event>
<event>
13      2 +1.4674046e+01 1.93282700e+02 7.54677100e-03 1.15591600e-01
       21 -1    0    0  504  502 +0.0000000000e+00 +0.0000000000e+00 +4.2806169778e+02 4.2806169778e+02 0.0000000000e+00 0.0000e+00 1.0000e+00
       21 -1    0    0  501  503 -0.0000000000e+00 -0.0000000000e+00 -1.3767363303e+02 1.3767363303e+02 0.0000000000e+00 0.0000e+00 1.0000e+00
        6  2    1    2  501    0 +5.4929227355e+01 -5.3622042589e+01 +2.7115296252e+02 3.3149280790e+02 1.7455947164e+02 0.0000e+00 0.0000e+00
       24  2    3    3    0    0 +8.0407942428e+01 -7.3156918869e+01 +1.3674806569e+02 1.9322660594e+02 8.2577937675e+01 0.0000e+00 0.0000e+00
       -6  2    1    2    0  502 -8.2758248353e+01 +5.8581891379e+01 +3.2800953610e+01 2.0288830735e+02 1.7264703019e+02 0.0000e+00 0.0000e+00
      -24  2    5    5    0    0 -5.7343100663e+01 +1.0736099455e+02 +2.9139709800e+01 1.4756358101e+02 7.8174634048e+01 0.0000e+00 0.0000e+00
        5  1    3    3  501    0 -2.5478715073e+01 +1.9534876280e+01 +1.3440489683e+02 1.3826620196e+02 4.7000000000e+00 0.0000e+00 -1.0000e+00
      -13  1    4    4    0    0 +6.3628344496e+01 -9.1213504732e+01 +1.0422742361e+02 1.5241989864e+02 0.0000000000e+00 0.0000e+00 1.0000e+00
       14  1    4    4    0    0 +1.6779597933e+01 +1.8056585862e+01 +3.2520642079e+01 4.0806707304e+01 0.0000000000e+00 0.0000e+00 -1.0000e+00
       -5  1    5    5    0  502 -2.5415147691e+01 -4.8779103171e+01 +3.6612438094e+00 5.5324726340e+01 4.7000000000e+00 0.0000e+00 1.0000e+00
       13  1    6    6    0    0 -6.5889945643e+00 +7.6849009635e+01 +4.0723789993e+01 8.7221626921e+01 0.0000000000e+00 0.0000e+00 -1.0000e+00
      -14  1    6    6    0    0 -5.0754106098e+01 +3.0511984915e+01 -1.1584080192e+01 6.0341954088e+01 0.0000000000e+00 0.0000e+00 1.0000e+00
       21  1    1    2  504  503 +2.7829020998e+01 -4.9598487899e+00 -1.3565851382e+01 3.1354215561e+01 0.0000000000e+00 0.0000e+00 1.0000e+00
<mgrwt>
<rscale>  3 0.19284990E+03</rscale>
<asrwt>0</asrwt>
<pdfrwt beam="1">  1       21 0.65855645E-01 0.19328271E+03</pdfrwt>
<pdfrwt beam="2">  1       21 0.21180559E-01 0.19328271E+03</pdfrwt>
<totfact> 0.43905296E+04</totfact>
</mgrwt>
</event>
<event>
13      2 +1.4674046e+01 1.97058900e+02 7.54677100e-03 1.15244500e-01
       21 -1    0    0  504  502 +0.0000000000e+00 +0.0000000000e+00 +5.5964612845e+02 5.5964612845e+02 0.0000000000e+00 0.0000e+00 -1.0000e+00
       21 -1    0    0  501  503 -0.0000000000e+00 -0.0000000000e+00 -9.7579124120e+01 9.7579124120e+01 0.0000000000e+00 0.0000e+00 -1.0000e+00
        6  2    1    2  501    0 +1.5136479750e+01 -5.9809960236e+01 +2.9787311923e+02 3.4981705147e+02 1.7273456508e+02 0.0000e+00 0.0000e+00
       24  2    3    3    0    0 -4.5308603720e+01 -2.1557547875e+01 +9.5889172065e+01 1.3548912496e+02 8.1516699035e+01 0.0000e+00 0.0000e+00
       -6  2    1    2    0  502 -3.3952360671e+01 +1.0345210911e+02 +1.0174660211e+02 2.2893312426e+02 1.7378982326e+02 0.0000e+00 0.0000e+00
      -24  2    5    5    0    0 -2.8043505604e+01 -2.3781653147e+01 +1.0418630475e+01 7.2133145850e+01 6.1177100588e+01 0.0000e+00 0.0000e+00
        5  1    3    3  501    0 +6.0445083470e+01 -3.8252412361e+01 +2.0198394717e+02 2.1432792651e+02 4.7000000000e+00 0.0000e+00 -1.0000e+00
      -13  1    4    4    0    0 -2.8634141981e+01 -1.6002964278e+01 +1.0882836220e+02 1.1366451237e+02 0.0000000000e+00 0.0000e+00 1.0000e+00
       14  1    4    4    0    0 -1.6674461739e+01 -5.5545835973e+00 -1.2939190138e+01 2.1824612589e+01 0.0000000000e+00 0.0000e+00 -1.0000e+00
       -5  1    5    5    0  502 -5.9088550671e+00 +1.2723376226e+02 +9.1327971636e+01 1.5679997841e+02 4.7000000000e+00 0.0000e+00 1.0000e+00
       13  1    6    6    0    0 -4.1379935712e+01 +2.2973168240e+00 +1.3325082285e+00 4.1465073523e+01 0.0000000000e+00 0.0000e+00 -1.0000e+00
      -14  1    6    6    0    0 +1.3336430108e+01 -2.6078969971e+01 +9.0861222468e+00 3.0668072327e+01 0.0000000000e+00 0.0000e+00 1.0000e+00
       21  1    1    2  504  503 +1.8815880921e+01 -4.3642148874e+01 +6.2447282988e+01 7.8475076844e+01 0.0000000000e+00 0.0000e+00 -1.0000e+00
<mgrwt>
<rscale>  3 0.19682600E+03</rscale>
<asrwt>0</asrwt>
<pdfrwt beam="1">  1       21 0.86099402E-01 0.19705891E+03</pdfrwt>
<pdfrwt beam="2">  1       21 0.15012173E-01 0.19705891E+03</pdfrwt>
<totfact> 0.45472003E+04</totfact>
</mgrwt>
</event>
<event>
12      1 +1.4674046e+01 1.96427600e+02 7.54677100e-03 1.15285200e-01
       21 -1    0    0  503  502 +0.0000000000e+00 +0.0000000000e+00 +1.5055462550e+02 1.5055462550e+02 0.0000000000e+00 0.0000e+00 1.0000e+00
       21 -1    0    0  501  503 -0.0000000000e+00 -0.0000000000e+00 -3.5550029292e+02 3.5550029292e+02 0.0000000000e+00 0.0000e+00 -1.0000e+00
        6  2    1    2  501    0 -4.4933863883e+01 +8.2541073670e+01 -2.3646239597e+02 3.0740571631e+02 1.7248689442e+02 0.0000e+00 0.0000e+00
       24  2    3    3    0    0 -6.8102398297e+01 +3.1110371791e-01 -9.0615663501e+01 1.3831429631e+02 7.9256625298e+01 0.0000e+00 0.0000e+00
       -6  2    1    2    0  502 +4.4933863883e+01 -8.2541073670e+01 +3.1516728557e+01 1.9864920211e+02 1.7215144598e+02 0.0000e+00 0.0000e+00
      -24  2    5    5    0    0 -1.1763436781e+01 +5.8542141325e+00 +4.7544573654e+01 9.2313447882e+01 7.8029711699e+01 0.0000e+00 0.0000e+00
        5  1    3    3  501    0 +2.3168534414e+01 +8.2229969952e+01 -1.4584673247e+02 1.6909142000e+02 4.7000000000e+00 0.0000e+00 -1.0000e+00
      -13  1    4    4    0    0 -2.2724149596e+01 +3.3969405506e+01 -1.4169549040e+01 4.3256023919e+01 0.0000000000e+00 0.0000e+00 1.0000e+00
       14  1    4    4    0    0 -4.5378248701e+01 -3.3658301788e+01 -7.6446114461e+01 9.5058272394e+01 0.0000000000e+00 0.0000e+00 -1.0000e+00
       -5  1    5    5    0  502 +5.6697300664e+01 -8.8395287802e+01 -1.6027845097e+01 1.0633575423e+02 4.7000000000e+00 0.0000e+00 1.0000e+00
       13  1    6    6    0    0 -1.5652578544e+01 -3.1647157444e+01 +4.0898037130e+01 5.4029577367e+01 0.0000000000e+00 0.0000e+00 -1.0000e+00
      -14  1    6    6    0    0 +3.8891417628e+00 +3.7501371577e+01 +6.6465365239e+00 3.8283870515e+01 0.0000000000e+00 0.0000e+00 1.0000e+00
<mgrwt>
<rscale>  2 0.19635395E+03</rscale>
<asrwt>0</asrwt>
<pdfrwt beam="1">  1       21 0.23162250E-01 0.19642762E+03</pdfrwt>
<pdfrwt beam="2">  1       21 0.54692352E-01 0.19642762E+03</pdfrwt>
<totfact> 0.55182182E+04</totfact>
</mgrwt>
</event>
<event>
13      2 +1.4674046e+01 2.21180000e+02 7.54677100e-03 1.13346600e-01
       21 -1    0    0  504  502 +0.0000000000e+00 +0.0000000000e+00 +1.0339340105e+03 1.0339340105e+03 0.0000000000e+00 0.0000e+00 1.0000e+00
       21 -1    0    0  502  503 -0.0000000000e+00 -0.0000000000e+00 -2.9279750337e+02 2.9279750337e+02 0.0000000000e+00 0.0000e+00 1.0000e+00
       -6  2    1    2    0  503 -1.8768354085e+01 +1.3224452906e+02 -2.2046090573e+02 3.1288226943e+02 1.7734552993e+02 0.0000e+00 0.0000e+00
      -24  2    3    3    0    0 -4.1546441208e+01 +1.1368947993e+02 -2.3765617466e+02 2.7851806749e+02 8.0252426381e+01 0.0000e+00 0.0000e+00
        6  2    1    2  501    0 -6.4236706187e+01 -5.0356297494e+01 +6.9963519624e+02 7.2710942261e+02 1.8037902735e+02 0.0000e+00 0.0000e+00
       24  2    5    5    0    0 -1.1572469933e+01 -1.5830155419e+01 +6.1740110092e+02 6.2342667235e+02 8.4215084784e+01 0.0000e+00 0.0000e+00
        5  1    5    5  501    0 -5.2664236253e+01 -3.4526142075e+01 +8.2234095319e+01 1.0368275025e+02 4.7000000000e+00 0.0000e+00 -1.0000e+00
      -13  1    6    6    0    0 -3.4663711153e+01 +2.0355075130e+01 +2.1353045099e+02 2.1728128187e+02 0.0000000000e+00 0.0000e+00 1.0000e+00
       14  1    6    6    0    0 +2.3091241219e+01 -3.6185230549e+01 +4.0387064993e+02 4.0614539048e+02 0.0000000000e+00 0.0000e+00 -1.0000e+00
       -5  1    3    3    0  503 +2.2778087123e+01 +1.8555049123e+01 +1.7195268934e+01 3.4364201936e+01 4.7000000000e+00 0.0000e+00 1.0000e+00
       13  1    4    4    0    0 +6.9667362107e+00 -9.9466789697e+00 -2.5030752917e+01 2.7821042891e+01 0.0000000000e+00 0.0000e+00 -1.0000e+00
      -14  1    4    4    0    0 -4.8513177419e+01 +1.2363615890e+02 -2.1262542174e+02 2.5069702460e+02 0.0000000000e+00 0.0000e+00 1.0000e+00
       21  1    1    2  504  501 +8.3005060272e+01 -8.1888231563e+01 +2.6196221665e+02 2.8673982188e+02 0.0000000000e+00 0.0000e+00 -1.0000e+00
<mgrwt>
<rscale>  3 0.22056068E+03</rscale>
<asrwt>0</asrwt>
<pdfrwt beam="1">  1       21 0.15906677E+00 0.22117999E+03</pdfrwt>
<pdfrwt beam="2">  1       21 0.45045770E-01 0.22117999E+03</pdfrwt>
<totfact> 0.11754511E+03</totfact>
</mgrwt>
</event>
<event>
14      3 +1.4674046e+01 3.41855800e+02 7.54677100e-03 1.06629200e-01
       21 -1    0    0  502  503 +0.0000000000e+00 +0.0000000000e+00 +8.4534730247e+02 8.4534730247e+02 0.0000000000e+00 0.0000e+00 1.0000e+00
       21 -1    0    0  501  504 -0.0000000000e+00 -0.0000000000e+00 -6.0727262530e+02 6.0727262530e+02 0.0000000000e+00 0.0000e+00 1.0000e+00
        6  2    1    2  501    0 -2.1125648771e+02 -1.6835489769e+02 -3.8195624138e+02 4.9886188365e+02 1.7320488864e+02 0.0000e+00 0.0000e+00
       24  2    3    3    0    0 -1.4259827445e+02 -6.7358543582e+01 -3.1048664039e+02 3.5728431601e+02 7.9866684803e+01 0.0000e+00 0.0000e+00
       -6  2    1    2    0  503 +2.8951210808e+02 +3.3019614067e+02 +2.4050279616e+02 5.3151392622e+02 1.7837798844e+02 0.0000e+00 0.0000e+00
      -24  2    5    5    0    0 +1.5117835295e+02 +1.8590535051e+02 +2.1086166786e+02 3.2938340793e+02 8.1333220141e+01 0.0000e+00 0.0000e+00
        5  1    3    3  501    0 -6.8658213263e+01 -1.0099635410e+02 -7.1469600996e+01 1.4157756763e+02 4.7000000000e+00 0.0000e+00 -1.0000e+00
      -13  1    4    4    0    0 -1.3252381017e+02 -6.2867945473e+01 -2.0977059555e+02 2.5596609461e+02 0.0000000000e+00 0.0000e+00 1.0000e+00
       14  1    4    4    0    0 -1.0074464280e+01 -4.4905981090e+00 -1.0071604484e+02 1.0131822141e+02 0.0000000000e+00 0.0000e+00 -1.0000e+00
       -5  1    5    5    0  503 +1.3833375514e+02 +1.4429079016e+02 +2.9641128297e+01 2.0213051828e+02 4.7000000000e+00 0.0000e+00 1.0000e+00
       13  1    6    6    0    0 +1.0728024346e+01 -7.6499960486e+00 +1.7147128906e+01 2.1624915621e+01 0.0000000000e+00 0.0000e+00 -1.0000e+00
      -14  1    6    6    0    0 +1.4045032860e+02 +1.9355534656e+02 +1.9371453896e+02 3.0775849231e+02 0.0000000000e+00 0.0000e+00 1.0000e+00
        3  1    1    2  502    0 -1.8852994975e+01 -5.7085696794e+01 +8.5594169020e+01 1.0459719866e+02 0.0000000000e+00 0.0000e+00 -1.0000e+00
       -3  1    1    2    0  504 -5.9402625394e+01 -1.0475554619e+02 +2.9393395337e+02 3.1764691924e+02 0.0000000000e+00 0.0000e+00 1.0000e+00
<mgrwt>
<rscale>  4 0.34118615E+03</rscale>
<asrwt>0</asrwt>
<pdfrwt beam="1">  1       21 0.13005343E+00 0.34185576E+03</pdfrwt>
<pdfrwt beam="2">  1       21 0.93426558E-01 0.34185576E+03</pdfrwt>
<totfact> 0.36571364E+02</totfact>
</mgrwt>
</event>
<event>
13      2 +1.4674046e+01 2.35164000e+02 7.54677100e-03 1.12331100e-01
       21 -1    0    0  501  503 +0.0000000000e+00 +0.0000000000e+00 +1.6498938690e+03 1.6498938690e+03 0.0000000000e+00 0.0000e+00 1.0000e+00
        1 -1    0    0  503    0 -0.0000000000e+00 -0.0000000000e+00 -1.2813373862e+02 1.2813373862e+02 0.0000000000e+00 0.0000e+00 1.0000e+00
       -6  2    1    2    0  502 -1.7499155491e+02 +6.9383514559e+00 +3.4691820635e+02 4.2469573243e+02 1.7130101644e+02 0.0000e+00 0.0000e+00
      -24  2    3    3    0    0 -3.1048349903e+01 +3.7614182089e+01 +1.8598155939e+02 2.0655965749e+02 7.5491224287e+01 0.0000e+00 0.0000e+00
        6  2    1    2  501    0 +1.5371529788e+02 -1.6369528172e+01 +1.2516822045e+03 1.2730445480e+03 1.7331395159e+02 0.0000e+00 0.0000e+00
       24  2    5    5    0    0 +3.7868025276e+01 +3.8166727282e+01 +3.8427775763e+02 3.9622794333e+02 8.0227811005e+01 0.0000e+00 0.0000e+00
        5  1    5    5  501    0 +1.1584727261e+02 -5.4536255453e+01 +8.6740444687e+02 8.7681660465e+02 4.7000000000e+00 0.0000e+00 -1.0000e+00
      -13  1    6    6    0    0 +3.6937378853e+01 +3.3485857225e+00 +6.3295623687e+01 7.3361563239e+01 0.0000000000e+00 0.0000e+00 1.0000e+00
       14  1    6    6    0    0 +9.3064642305e-01 +3.4818141559e+01 +3.2098213394e+02 3.2286638009e+02 0.0000000000e+00 0.0000e+00 -1.0000e+00
       -5  1    3    3    0  502 -1.4394320501e+02 -3.0675830633e+01 +1.6093664696e+02 2.1813607493e+02 4.7000000000e+00 0.0000e+00 1.0000e+00
       13  1    4    4    0    0 +1.5149743353e+01 -1.2794117781e+01 +2.7013215386e+01 3.3509968352e+01 0.0000000000e+00 0.0000e+00 -1.0000e+00
      -14  1    4    4    0    0 -4.6198093256e+01 +5.0408299870e+01 +1.5896834401e+02 1.7304968914e+02 0.0000000000e+00 0.0000e+00 1.0000e+00
        1  1    1    2  502    0 +2.1276257028e+01 +9.4311767156e+00 -7.6840280472e+01 8.0287327210e+01 0.0000000000e+00 0.0000e+00 1.0000e+00
<mgrwt>
<rscale>  3 0.23479327E+03</rscale>
<asrwt>0</asrwt>
<pdfrwt beam="1">  1       21 0.25382981E+00 0.23516404E+03</pdfrwt>
<pdfrwt beam="2">  1        1 0.19712884E-01 0.23516404E+03</pdfrwt>
<totfact> 0.17019639E+02</totfact>
</mgrwt>
</event>
<event>
12      1 +1.4674046e+01 2.61260900e+02 7.54677100e-03 1.10655800e-01
       21 -1    0    0  503  502 +0.0000000000e+00 +0.0000000000e+00 +2.8964695539e+02 2.8964695539e+02 0.0000000000e+00 0.0000e+00 -1.0000e+00
       21 -1    0    0  501  503 -0.0000000000e+00 -0.0000000000e+00 -3.7969500230e+02 3.7969500230e+02 0.0000000000e+00 0.0000e+00 -1.0000e+00
        6  2    1    2  501    0 -1.3195222158e+02 +1.4252457143e+02 -2.5182456651e+02 3.6204909518e+02 1.7302974535e+02 0.0000e+00 0.0000e+00
       24  2    3    3    0    0 -7.9248651668e+01 +1.6628303094e+02 -2.0978313021e+02 2.9041318905e+02 8.0002896736e+01 0.0000e+00 0.0000e+00
       -6  2    1    2    0  502 +1.3195222158e+02 -1.4252457143e+02 +1.6177651961e+02 3.0729286252e+02 1.7473585440e+02 0.0000e+00 0.0000e+00
      -24  2    5    5    0    0 +1.3060034646e+02 -1.6966477819e+02 +1.6086333618e+02 2.7970043071e+02 8.0701490447e+01 0.0000e+00 0.0000e+00
        5  1    3    3  501    0 -5.2703569912e+01 -2.3758459507e+01 -4.2041436304e+01 7.1635906123e+01 4.7000000000e+00 0.0000e+00 -1.0000e+00
      -13  1    4    4    0    0 +5.3713696893e+00 +6.5259843625e+01 -4.5169634446e+01 7.9548693756e+01 0.0000000000e+00 0.0000e+00 1.0000e+00
       14  1    4    4    0    0 -8.4620021358e+01 +1.0102318732e+02 -1.6461349576e+02 2.1086449530e+02 0.0000000000e+00 0.0000e+00 -1.0000e+00
       -5  1    5    5    0  502 +1.3518751211e+00 +2.7140206754e+01 +9.1318343186e-01 2.7592431806e+01 4.7000000000e+00 0.0000e+00 1.0000e+00
       13  1    6    6    0    0 +3.9895866250e+01 -7.9398621065e+00 +4.6774166798e+01 6.1988258838e+01 0.0000000000e+00 0.0000e+00 -1.0000e+00
      -14  1    6    6    0    0 +9.0704480209e+01 -1.6172491608e+02 +1.1408916938e+02 2.1771217187e+02 0.0000000000e+00 0.0000e+00 1.0000e+00
<mgrwt>
<rscale>  2 0.26097594E+03</rscale>
<asrwt>0</asrwt>
<pdfrwt beam="1">  1       21 0.44561070E-01 0.26126091E+03</pdfrwt>
<pdfrwt beam="2">  1       21 0.58414615E-01 0.26126091E+03</pdfrwt>
<totfact> 0.12749395E+04</totfact>
</mgrwt>
</event>
<event>
12      1 +1.4674046e+01 2.01044800e+02 7.54677100e-03 1.14962300e-01
       21 -1    0    0  503  502 +0.0000000000e+00 +0.0000000000e+00 +6.9190674757e+02 6.9190674757e+02 0.0000000000e+00 0.0000e+00 1.0000e+00
       21 -1    0    0  501  503 -0.0000000000e+00 -0.0000000000e+00 -5.7572564605e+01 5.7572564605e+01 0.0000000000e+00 0.0000e+00 1.0000e+00
        6  2    1    2  501    0 -8.3113195389e+00 +9.6676287392e+01 +2.9234089928e+02 3.5276981189e+02 1.7195335477e+02 0.0000e+00 0.0000e+00
       24  2    3    3    0    0 +3.4547116356e+01 +1.0104372887e+02 +1.3408997767e+02 1.8869250005e+02 7.8875845924e+01 0.0000e+00 0.0000e+00
       -6  2    1    2    0  502 +8.3113195389e+00 -9.6676287392e+01 +3.4199328369e+02 3.9670950028e+02 1.7607850224e+02 0.0000e+00 0.0000e+00
      -24  2    5    5    0    0 -4.7052840251e+01 -5.2843119122e+01 +2.8962954296e+02 3.0867207544e+02 7.9917538670e+01 0.0000e+00 0.0000e+00
        5  1    3    3  501    0 -4.2858435895e+01 -4.3674414810e+00 +1.5825092160e+02 1.6407731184e+02 4.7000000000e+00 0.0000e+00 -1.0000e+00
      -13  1    4    4    0    0 +1.7768144718e+01 +6.9637419832e+01 +1.3514858580e+02 1.5306932237e+02 0.0000000000e+00 0.0000e+00 1.0000e+00
       14  1    4    4    0    0 +1.6778971638e+01 +3.1406309040e+01 -1.0586081278e+00 3.5623177679e+01 0.0000000000e+00 0.0000e+00 -1.0000e+00
       -5  1    5    5    0  502 +5.5364159790e+01 -4.3833168269e+01 +5.2363740726e+01 8.8037424841e+01 4.7000000000e+00 0.0000e+00 1.0000e+00
       13  1    6    6    0    0 -3.6687694401e+01 -2.7620652292e+01 +2.7277705475e+02 2.7661563396e+02 0.0000000000e+00 0.0000e+00 -1.0000e+00
      -14  1    6    6    0    0 -1.0365145850e+01 -2.5222466831e+01 +1.6852488213e+01 3.2056441482e+01 0.0000000000e+00 0.0000e+00 1.0000e+00
<mgrwt>
<rscale>  2 0.20013800E+03</rscale>
<asrwt>0</asrwt>
<pdfrwt beam="1">  1       21 0.10644719E+00 0.20104482E+03</pdfrwt>
<pdfrwt beam="2">  1       21 0.88573181E-02 0.20104482E+03</pdfrwt>
<totfact> 0.70734957E+04</totfact>
</mgrwt>
</event>
<event>
11      1 +1.4674046e+01 2.15140400e+02 7.54677100e-03 1.13775100e-01
       21 -1    0    0  503  502 +0.0000000000e+00 +0.0000000000e+00 +3.8075959253e+02 3.8075959253e+02 0.0000000000e+00 0.0000e+00 -1.0000e+00
       21 -1    0    0  501  503 -0.0000000000e+00 -0.0000000000e+00 -4.9344225614e+02 4.9344225614e+02 0.0000000000e+00 0.0000e+00 -1.0000e+00
        6  2    1    2  501    0 -3.3866053609e+01 +1.2201658328e+02 -4.3605662119e+02 4.8579983382e+02 1.7268800039e+02 0.0000e+00 0.0000e+00
       -6  2    1    2    0  502 +3.3866053609e+01 -1.2201658328e+02 +3.2337395757e+02 3.8840201485e+02 1.7392657220e+02 0.0000e+00 0.0000e+00
      -24  2    4    4    0    0 -2.7853986556e+01 -1.2603029059e+02 +2.4693135278e+02 2.8995896008e+02 8.0259746024e+01 0.0000e+00 0.0000e+00
        5  1    3    3  501    0 +2.9124838993e+01 +1.2646921881e+02 -1.8937883258e+02 2.2962829047e+02 4.7000000000e+00 0.0000e+00 -1.0000e+00
      -13  1    3    3    0    0 -4.4209287878e+01 +1.1547744897e+00 -2.0977831188e+02 2.1438921329e+02 0.0000000000e+00 0.0000e+00 1.0000e+00
       14  1    3    3    0    0 -1.8781604724e+01 -5.6074100204e+00 -3.6899476720e+01 4.1782330061e+01 0.0000000000e+00 0.0000e+00 -1.0000e+00
       -5  1    4    4    0  502 +6.1720040165e+01 +4.0137073078e+00 +7.6442604795e+01 9.8443054768e+01 4.7000000000e+00 0.0000e+00 1.0000e+00
       13  1    5    5    0    0 +1.0799544293e+01 -9.6729364706e+01 +2.0020072273e+02 2.2260622079e+02 0.0000000000e+00 0.0000e+00 -1.0000e+00
      -14  1    5    5    0    0 -3.8653530849e+01 -2.9300925886e+01 +4.6730630047e+01 6.7352739287e+01 0.0000000000e+00 0.0000e+00 1.0000e+00
<mgrwt>
<rscale>  2 0.21488999E+03</rscale>
<asrwt>0</asrwt>
<pdfrwt beam="1">  1       21 0.58578399E-01 0.21514044E+03</pdfrwt>
<pdfrwt beam="2">  1       21 0.75914193E-01 0.21514044E+03</pdfrwt>
<totfact> 0.41473801E+03</totfact>
</mgrwt>
</event>
<event>
13      2 +1.4674046e+01 3.79910700e+02 7.54677100e-03 1.07576500e-01
        2 -1    0    0  503    0 -0.0000000000e+00 +0.0000000000e+00 +1.6385382383e+03 1.6385382383e+03 0.0000000000e+00 0.0000e+00 -1.0000e+00
       21 -1    0    0  501  503 +0.0000000000e+00 -0.0000000000e+00 -1.8307412180e+03 1.8307412180e+03 0.0000000000e+00 0.0000e+00 -1.0000e+00
       -6  2    1    2    0  502 -2.3928045189e+02 -2.1006305910e+02 -1.6650259898e+03 1.7042640050e+03 1.7556374551e+02 0.0000e+00 0.0000e+00
      -24  2    3    3    0    0 -1.7961688520e+02 -9.0020467966e+01 -8.0251604680e+02 8.3138631794e+02 8.2494206971e+01 0.0000e+00 0.0000e+00
        6  2    1    2  501    0 +4.6399776851e+01 -6.6540835585e+01 -5.6604658524e+01 1.9885400904e+02 1.7250567368e+02 0.0000e+00 0.0000e+00
       24  2    5    5    0    0 +3.5250408370e-01 +2.4887846932e+01 -1.6242984109e+00 8.2559188370e+01 7.8701029568e+01 0.0000e+00 0.0000e+00
        5  1    5    5  501    0 +4.6047272767e+01 -9.1428682516e+01 -5.4980360113e+01 1.1629482067e+02 4.7000000000e+00 0.0000e+00 -1.0000e+00
      -13  1    6    6    0    0 -5.6633260702e-02 -2.6466560070e+01 -1.3700456604e+01 2.9802424741e+01 0.0000000000e+00 0.0000e+00 1.0000e+00
       14  1    6    6    0    0 +4.0913734440e-01 +5.1354407002e+01 +1.2076158193e+01 5.2756763629e+01 0.0000000000e+00 0.0000e+00 -1.0000e+00
       -5  1    3    3    0  502 -5.9663566688e+01 -1.2004259114e+02 -8.6250994300e+02 8.7287768710e+02 4.7000000000e+00 0.0000e+00 1.0000e+00
       13  1    4    4    0    0 -1.2426763661e+02 -6.6161176155e+01 -6.8497415953e+02 6.9929203196e+02 0.0000000000e+00 0.0000e+00 -1.0000e+00
      -14  1    4    4    0    0 -5.5349248595e+01 -2.3859291811e+01 -1.1754188727e+02 1.3209428598e+02 0.0000000000e+00 0.0000e+00 1.0000e+00
        2  1    1    2  502    0 +1.9288067504e+02 +2.7660389469e+02 +1.5294276687e+03 1.5661614422e+03 0.0000000000e+00 0.0000e+00 -1.0000e+00
<mgrwt>
<rscale>  3 0.31974773E+03</rscale>
<asrwt>0</asrwt>
<pdfrwt beam="2">  1       21 0.28165250E+00 0.37991065E+03</pdfrwt>
<pdfrwt beam="1">  1        2 0.25208281E+00 0.37991065E+03</pdfrwt>
<totfact> 0.52367230E+00</totfact>
</mgrwt>
</event>
<event>
11      1 +1.4674046e+01 2.61474600e+02 7.54677100e-03 1.12136500e-01
       21 -1    0    0  503  502 +0.0000000000e+00 +0.0000000000e+00 +1.1283194787e+02 1.1283194787e+02 0.0000000000e+00 0.0000e+00 -1.0000e+00
       21 -1    0    0  501  503 -0.0000000000e+00 -0.0000000000e+00 -4.4741599750e+02 4.4741599750e+02 0.0000000000e+00 0.0000e+00 -1.0000e+00
       24  2    1    2    0    0 +1.1451760345e+02 -7.0359128513e+01 -9.2839209090e+01 1.8054180196e+02 7.6886507574e+01 0.0000e+00 0.0000e+00
       -6  2    1    2    0  502 -4.2648233573e+01 +1.8281756380e+01 -8.0873288298e+01 1.9591548712e+02 1.7230581793e+02 0.0000e+00 0.0000e+00
      -24  2    4    4    0    0 -4.6675243493e+01 +6.2501421424e+01 +9.8037243802e-01 1.0267543478e+02 6.6755357399e+01 0.0000e+00 0.0000e+00
        5  1    1    2  501    0 -7.1869369873e+01 +5.2077372132e+01 -1.6087155224e+02 1.8379065628e+02 4.7000000000e+00 0.0000e+00 -1.0000e+00
      -13  1    3    3    0    0 +1.0880784052e+02 -3.5860033687e+01 -4.9360681996e+01 1.2474600235e+02 0.0000000000e+00 0.0000e+00 1.0000e+00
       14  1    3    3    0    0 +5.7097629278e+00 -3.4499094825e+01 -4.3478527093e+01 5.5795799615e+01 0.0000000000e+00 0.0000e+00 -1.0000e+00
       -5  1    4    4    0  502 +4.0270099200e+00 -4.4219665044e+01 -8.1853660736e+01 9.3240052345e+01 4.7000000000e+00 0.0000e+00 1.0000e+00
       13  1    5    5    0    0 -5.8323002668e+01 +3.7559358083e+01 -1.4819234829e+01 7.0935800134e+01 0.0000000000e+00 0.0000e+00 -1.0000e+00
      -14  1    5    5    0    0 +1.1647759175e+01 +2.4942063341e+01 +1.5799607267e+01 3.1739634643e+01 0.0000000000e+00 0.0000e+00 1.0000e+00
<mgrwt>
<rscale>  2 0.23765551E+03</rscale>
<asrwt>0</asrwt>
<pdfrwt beam="1">  1       21 0.17358762E-01 0.26147464E+03</pdfrwt>
<pdfrwt beam="2">  1       21 0.68833229E-01 0.26147464E+03</pdfrwt>
<totfact> 0.56045276E+04</totfact>
</mgrwt>
</event>
<event>
13      2 +1.4674046e+01 1.97183200e+02 7.54677100e-03 1.15230500e-01
       21 -1    0    0  501  502 +0.0000000000e+00 +0.0000000000e+00 +1.4905823065e+02 1.4905823065e+02 0.0000000000e+00 0.0000e+00 -1.0000e+00
       21 -1    0    0  502  503 -0.0000000000e+00 -0.0000000000e+00 -5.0273903233e+02 5.0273903233e+02 0.0000000000e+00 0.0000e+00 1.0000e+00
       -6  2    1    2    0  504 -7.8085922906e+01 -2.8391012092e+01 -9.0120081427e+00 1.9395019311e+02 1.7501999941e+02 0.0000e+00 0.0000e+00
      -24  2    3    3    0    0 -1.0425827834e+02 -6.5455182486e+01 -2.1510034738e+01 1.4665288257e+02 7.6747748207e+01 0.0000e+00 0.0000e+00
        6  2    1    2  501    0 +9.7214156088e+01 +3.9502552671e+01 -1.2843420816e+02 2.4048389094e+02 1.7414394094e+02 0.0000e+00 0.0000e+00
       24  2    5    5    0    0 -1.9027576380e+01 +2.2257338531e+01 -4.2093371213e+01 9.4585406022e+01 7.9480245035e+01 0.0000e+00 0.0000e+00
        5  1    5    5  501    0 +1.1624173247e+02 +1.7245214140e+01 -8.6340836942e+01 1.4589848492e+02 4.7000000000e+00 0.0000e+00 -1.0000e+00
      -13  1    6    6    0    0 +1.6314618774e+01 +2.8607668976e+01 -4.7983056152e+01 5.8197415644e+01 0.0000000000e+00 0.0000e+00 1.0000e+00
       14  1    6    6    0    0 -3.5342195153e+01 -6.3503304450e+00 +5.8896849388e+00 3.6387990377e+01 0.0000000000e+00 0.0000e+00 -1.0000e+00
       -5  1    3    3    0  504 +2.6172355432e+01 +3.7064170393e+01 +1.2498026596e+01 4.7297310543e+01 4.7000000000e+00 0.0000e+00 1.0000e+00
       13  1    4    4    0    0 -4.3555069284e+01 -3.5915788035e+01 +2.7921863644e+01 6.2981095257e+01 0.0000000000e+00 0.0000e+00 -1.0000e+00
      -14  1    4    4    0    0 -6.0703209054e+01 -2.9539394451e+01 -4.9431898383e+01 8.3671787310e+01 0.0000000000e+00 0.0000e+00 1.0000e+00
       21  1    1    2  504  503 -1.9128233183e+01 -1.1111540579e+01 -2.1623458538e+02 2.1736317893e+02 0.0000000000e+00 0.0000e+00 1.0000e+00
<mgrwt>
<rscale>  3 0.19698863E+03</rscale>
<asrwt>0</asrwt>
<pdfrwt beam="1">  1       21 0.22932035E-01 0.19718321E+03</pdfrwt>
<pdfrwt beam="2">  1       21 0.77344469E-01 0.19718321E+03</pdfrwt>
<totfact> 0.26418631E+04</totfact>
</mgrwt>
</event>
<event>
12      1 +1.4674046e+01 2.71920300e+02 7.54677100e-03 1.10018600e-01
       -2 -1    0    0    0  501 -0.0000000000e+00 +0.0000000000e+00 +1.3605082966e+02 1.3605082966e+02 0.0000000000e+00 0.0000e+00 -1.0000e+00
        2 -1    0    0  502    0 +0.0000000000e+00 -0.0000000000e+00 -5.4380856301e+02 5.4380856301e+02 0.0000000000e+00 0.0000e+00 1.0000e+00
        6  2    1    2  502    0 +1.9847860762e+02 +6.8062974254e+01 -2.1222455144e+02 3.4489956328e+02 1.7288760040e+02 0.0000e+00 0.0000e+00
       24  2    3    3    0    0 +7.5362344414e+01 +8.9823266102e+01 -1.4337287190e+02 2.0209281154e+02 8.0858036030e+01 0.0000e+00 0.0000e+00
       -6  2    1    2    0  501 -1.9847860762e+02 -6.8062974254e+01 -1.9553318192e+02 3.3495982939e+02 1.7302755829e+02 0.0000e+00 0.0000e+00
      -24  2    5    5    0    0 -5.3493906086e+01 +1.8462062898e+01 -9.9197686153e+01 1.4051250111e+02 8.1860468322e+01 0.0000e+00 0.0000e+00
        5  1    3    3  502    0 +1.2311626320e+02 -2.1760291848e+01 -6.8851679531e+01 1.4280675173e+02 4.7000000000e+00 0.0000e+00 -1.0000e+00
      -13  1    4    4    0    0 +2.4502883220e+01 +9.3215870002e+00 -8.8261144386e+01 9.2072324173e+01 0.0000000000e+00 0.0000e+00 1.0000e+00
       14  1    4    4    0    0 +5.0859461194e+01 +8.0501679102e+01 -5.5111727518e+01 1.1002048737e+02 0.0000000000e+00 0.0000e+00 -1.0000e+00
       -5  1    5    5    0  501 -1.4498470153e+02 -8.6525037152e+01 -9.6335495763e+01 1.9444732828e+02 4.7000000000e+00 0.0000e+00 1.0000e+00
       13  1    6    6    0    0 +2.0849532473e+01 +1.1364127745e+00 -1.0127783562e+01 2.3207034240e+01 0.0000000000e+00 0.0000e+00 -1.0000e+00
      -14  1    6    6    0    0 -7.4343438559e+01 +1.7325650123e+01 -8.9069902592e+01 1.1730546687e+02 0.0000000000e+00 0.0000e+00 1.0000e+00
<mgrwt>
<rscale>  2 0.27192030E+03</rscale>
<asrwt>0</asrwt>
<pdfrwt beam="2">  1        2 0.83662857E-01 0.27192030E+03</pdfrwt>
<pdfrwt beam="1">  1       -2 0.20930897E-01 0.27192030E+03</pdfrwt>
<totfact> 0.11003308E+03</totfact>
</mgrwt>
</event>
<event>
12      1 +1.4674046e+01 4.16885900e+02 7.54677100e-03 1.03808500e-01
       -2 -1    0    0    0  501 -0.0000000000e+00 +0.0000000000e+00 +5.2611727817e+02 5.2611727817e+02 0.0000000000e+00 0.0000e+00 1.0000e+00
        2 -1    0    0  502    0 +0.0000000000e+00 -0.0000000000e+00 -3.4171482965e+02 3.4171482965e+02 0.0000000000e+00 0.0000e+00 -1.0000e+00
        6  2    1    2  502    0 +1.3083846601e+02 +3.5596900577e+02 +1.7143280786e+02 4.5093010577e+02 1.7353995339e+02 0.0000e+00 0.0000e+00
       24  2    3    3    0    0 +1.2778111503e+02 +1.7124905527e+02 +1.2494485024e+02 2.6036770730e+02 8.0782888734e+01 0.0000e+00 0.0000e+00
       -6  2    1    2    0  501 -1.3083846601e+02 -3.5596900577e+02 +1.2969640655e+01 4.1690200206e+02 1.7264538941e+02 0.0000e+00 0.0000e+00
      -24  2    5    5    0    0 -1.2262962819e+02 -2.8207256817e+02 -4.5618380344e+01 3.2212481750e+02 8.4145124639e+01 0.0000e+00 0.0000e+00
        5  1    3    3  502    0 +3.0573509751e+00 +1.8471995050e+02 +4.6487957618e+01 1.9056239847e+02 4.7000000000e+00 0.0000e+00 -1.0000e+00
      -13  1    4    4    0    0 +3.9166423936e+01 +1.1273321022e+02 +8.6649429051e+01 1.4748189382e+02 0.0000000000e+00 0.0000e+00 1.0000e+00
       14  1    4    4    0    0 +8.8614691098e+01 +5.8515845049e+01 +3.8295421194e+01 1.1288581348e+02 0.0000000000e+00 0.0000e+00 -1.0000e+00
       -5  1    5    5    0  501 -8.2088378227e+00 -7.3896437603e+01 +5.8588020999e+01 9.4777184561e+01 4.7000000000e+00 0.0000e+00 1.0000e+00
       13  1    6    6    0    0 -9.8648492616e+00 -7.9080176923e+01 -4.1559383064e+01 8.9878651268e+01 0.0000000000e+00 0.0000e+00 -1.0000e+00
      -14  1    6    6    0    0 -1.1276477893e+02 -2.0299239124e+02 -4.0589972802e+00 2.3224616623e+02 0.0000000000e+00 0.0000e+00 1.0000e+00
<mgrwt>
<rscale>  2 0.41688589E+03</rscale>
<asrwt>0</asrwt>
<pdfrwt beam="2">  1        2 0.52571512E-01 0.41688589E+03</pdfrwt>
<pdfrwt beam="1">  1       -2 0.80941120E-01 0.41688589E+03</pdfrwt>
<totfact> 0.13131573E+02</totfact>
</mgrwt>
</event>
<event>
13      2 +1.4674046e+01 1.75111200e+02 7.54677100e-03 1.17342300e-01
       21 -1    0    0  503  502 +0.0000000000e+00 +0.0000000000e+00 +3.3037204035e+02 3.3037204035e+02 0.0000000000e+00 0.0000e+00 1.0000e+00
       21 -1    0    0  504  503 -0.0000000000e+00 -0.0000000000e+00 -9.3372028058e+01 9.3372028058e+01 0.0000000000e+00 0.0000e+00 1.0000e+00
        6  2    1    2  504    0 -6.7736952984e+00 -3.7356827499e-01 +8.6824245338e+01 1.9545429370e+02 1.7497973839e+02 0.0000e+00 0.0000e+00
       24  2    3    3    0    0 -3.5614425291e+01 +5.4576762066e+01 +2.8649108607e+01 1.0676725126e+02 7.9570498743e+01 0.0000e+00 0.0000e+00
       -6  2    1    2    0  502 +6.7736952984e+00 +3.7356827499e-01 +1.5017576696e+02 2.2828977471e+02 1.7180639614e+02 0.0000e+00 0.0000e+00
      -24  2    5    5    0    0 +5.2141941374e+00 -5.9413540162e+01 +1.3398348567e+02 1.6615113655e+02 7.8086293104e+01 0.0000e+00 0.0000e+00
        5  1    3    3  501    0 +9.3268911837e+00 -3.9399535165e+01 +2.7615067239e+01 4.9234096001e+01 4.7000000000e+00 0.0000e+00 -1.0000e+00
      -13  1    4    4    0    0 -3.3631844863e+01 +2.6685074368e+01 +5.4025571783e+01 6.9006931459e+01 0.0000000000e+00 0.0000e+00 1.0000e+00
       14  1    4    4    0    0 -1.9825804279e+00 +2.7891687698e+01 -2.5376463176e+01 3.7760319796e+01 0.0000000000e+00 0.0000e+00 -1.0000e+00
       -5  1    5    5    0  502 +1.5595011611e+00 +5.9787108437e+01 +1.6192281290e+01 6.2138638161e+01 4.7000000000e+00 0.0000e+00 1.0000e+00
       13  1    6    6    0    0 +6.1820330881e+00 +1.0658903774e+01 +7.0577452186e+01 7.1645003453e+01 0.0000000000e+00 0.0000e+00 -1.0000e+00
      -14  1    6    6    0    0 -9.6783895067e-01 -7.0072443936e+01 +6.3406033482e+01 9.4506133099e+01 0.0000000000e+00 0.0000e+00 1.0000e+00
       21  1    3    3  504  501 +1.9513838809e+01 -1.5550795176e+01 +3.0560069492e+01 3.9452946443e+01 0.0000000000e+00 0.0000e+00 -1.0000e+00
<mgrwt>
<rscale>  3 0.17431303E+03</rscale>
<asrwt>0</asrwt>
<pdfrwt beam="1">  1       21 0.50826467E-01 0.17511120E+03</pdfrwt>
<pdfrwt beam="2">  1       21 0.14364928E-01 0.17511120E+03</pdfrwt>
<totfact> 0.15715172E+05</totfact>
</mgrwt>
</event>
<event>
12      1 +1.4674046e+01 1.97338000e+02 7.54677100e-03 1.15213100e-01
       21 -1    0    0  501  502 +0.0000000000e+00 +0.0000000000e+00 +3.6114253753e+01 3.6114253753e+01 0.0000000000e+00 0.0000e+00 -1.0000e+00
       21 -1    0    0  502  503 -0.0000000000e+00 -0.0000000000e+00 -1.1269004429e+03 1.1269004429e+03 0.0000000000e+00 0.0000e+00 -1.0000e+00
       -6  2    1    2    0  503 +9.2808690920e+01 +1.5807237843e+01 -4.1992820121e+02 4.6373455213e+02 1.7276202936e+02 0.0000e+00 0.0000e+00
      -24  2    3    3    0    0 -6.1708419683e+00 +1.1546332798e+01 -1.0325548150e+02 1.3189301668e+02 8.1010346850e+01 0.0000e+00 0.0000e+00
        6  2    1    2  501    0 -9.2808690920e+01 -1.5807237843e+01 -6.7085798798e+02 6.9928014457e+02 1.7343286502e+02 0.0000e+00 0.0000e+00
       24  2    5    5    0    0 -1.1410435428e+02 +3.2335406237e+01 -4.4322572211e+02 4.6559283656e+02 7.9134483997e+01 0.0000e+00 0.0000e+00
        5  1    5    5  501    0 +2.1295663359e+01 -4.8142644080e+01 -2.2763226587e+02 2.3368730801e+02 4.7000000000e+00 0.0000e+00 -1.0000e+00
      -13  1    6    6    0    0 -1.1978754247e+01 +3.8144176612e+01 -1.1131120697e+02 1.1827363848e+02 0.0000000000e+00 0.0000e+00 1.0000e+00
       14  1    6    6    0    0 -1.0212560003e+02 -5.8087703750e+00 -3.3191451514e+02 3.4731919808e+02 0.0000000000e+00 0.0000e+00 -1.0000e+00
       -5  1    3    3    0  503 +9.8979532888e+01 +4.2609050446e+00 -3.1667271971e+02 3.3184153545e+02 4.7000000000e+00 0.0000e+00 1.0000e+00
       13  1    4    4    0    0 +3.6940059446e+01 +4.2582801048e+00 -5.8558542753e+01 6.9367167094e+01 0.0000000000e+00 0.0000e+00 -1.0000e+00
      -14  1    4    4    0    0 -4.3110901414e+01 +7.2880526936e+00 -4.4696938750e+01 6.2525849586e+01 0.0000000000e+00 0.0000e+00 1.0000e+00
<mgrwt>
<rscale>  2 0.19719049E+03</rscale>
<asrwt>0</asrwt>
<pdfrwt beam="1">  1       21 0.55560388E-02 0.19733799E+03</pdfrwt>
<pdfrwt beam="2">  1       21 0.17336931E+00 0.19733799E+03</pdfrwt>
<totfact> 0.45315764E+04</totfact>
</mgrwt>
</event>
<event>
13      2 +1.4674046e+01 2.67463000e+02 7.54677100e-03 1.10312900e-01
       21 -1    0    0  501  502 +0.0000000000e+00 +0.0000000000e+00 +3.2039660952e+02 3.2039660952e+02 0.0000000000e+00 0.0000e+00 -1.0000e+00
       21 -1    0    0  504  503 -0.0000000000e+00 -0.0000000000e+00 -4.2484788396e+02 4.2484788396e+02 0.0000000000e+00 0.0000e+00 1.0000e+00
       -6  2    1    2    0  503 -2.2455517990e+02 -1.8624258249e+01 +1.7340897543e+02 3.3305783021e+02 1.7345014756e+02 0.0000e+00 0.0000e+00
      -24  2    3    3    0    0 -2.0634691619e+02 -5.8731487677e+01 +1.7533001756e+02 2.8871923390e+02 8.1177235115e+01 0.0000e+00 0.0000e+00
        6  2    1    2  501    0 +1.9468385741e+02 +7.2141912719e+00 -2.7366314395e+02 3.7993606275e+02 1.7749942684e+02 0.0000e+00 0.0000e+00
       24  2    5    5    0    0 +1.0436326886e+02 -6.4285611958e+01 -1.6892010794e+02 2.2416949326e+02 8.1814589470e+01 0.0000e+00 0.0000e+00
        5  1    5    5  501    0 +9.0320588555e+01 +7.1499803230e+01 -1.0474303601e+02 1.5576656949e+02 4.7000000000e+00 0.0000e+00 -1.0000e+00
      -13  1    6    6    0    0 +5.2351700403e+01 -3.9729754959e+00 -1.1928166627e+02 1.3032498217e+02 0.0000000000e+00 0.0000e+00 1.0000e+00
       14  1    6    6    0    0 +5.2011568456e+01 -6.0312636462e+01 -4.9638441668e+01 9.3844511089e+01 0.0000000000e+00 0.0000e+00 -1.0000e+00
       -5  1    3    3    0  503 -1.8208263716e+01 +4.0107229428e+01 -1.9210421310e+00 4.4338596311e+01 4.7000000000e+00 0.0000e+00 1.0000e+00
       13  1    4    4    0    0 -7.0803282384e+01 -2.5951278797e+01 +1.1328465177e+02 1.3608815523e+02 0.0000000000e+00 0.0000e+00 -1.0000e+00
      -14  1    4    4    0    0 -1.3554363380e+02 -3.2780208880e+01 +6.2045365785e+01 1.5263107867e+02 0.0000000000e+00 0.0000e+00 1.0000e+00
       21  1    1    2  504  502 +2.9871322490e+01 +1.1410066978e+01 -4.1971059159e+00 3.2250600519e+01 0.0000000000e+00 0.0000e+00 -1.0000e+00
<mgrwt>
<rscale>  3 0.26679301E+03</rscale>
<asrwt>0</asrwt>
<pdfrwt beam="1">  1       21 0.49291786E-01 0.26746301E+03</pdfrwt>
<pdfrwt beam="2">  1       21 0.65361212E-01 0.26746301E+03</pdfrwt>
<totfact> 0.80672174E+03</totfact>
</mgrwt>
</event>
<event>
12      1 +1.4674046e+01 2.01439400e+02 7.54677100e-03 1.14933500e-01
       21 -1    0    0  503  502 +0.0000000000e+00 +0.0000000000e+00 +2.1876826491e+02 2.1876826491e+02 0.0000000000e+00 0.0000e+00 -1.0000e+00
       21 -1    0    0  501  503 -0.0000000000e+00 -0.0000000000e+00 -2.0908087724e+02 2.0908087724e+02 0.0000000000e+00 0.0000e+00 1.0000e+00
        6  2    1    2  501    0 -3.3505871614e+01 +9.5190491751e+01 -7.2195574900e+01 2.1040337566e+02 1.6992205949e+02 0.0000e+00 0.0000e+00
       24  2    3    3    0    0 +4.1188812101e+01 +7.6660913911e+01 -5.9801306496e+01 1.3231144958e+02 7.9728975078e+01 0.0000e+00 0.0000e+00
       -6  2    1    2    0  502 +3.3505871614e+01 -9.5190491751e+01 +8.1882962572e+01 2.1744576648e+02 1.7433866080e+02 0.0000e+00 0.0000e+00
      -24  2    5    5    0    0 +3.8560690245e+01 -1.4253609786e+01 +9.9416751104e+01 1.3434429963e+02 8.0464950245e+01 0.0000e+00 0.0000e+00
        5  1    3    3  501    0 -7.4694683715e+01 +1.8529577841e+01 -1.2394268403e+01 7.8091926084e+01 4.7000000000e+00 0.0000e+00 -1.0000e+00
      -13  1    4    4    0    0 -3.4243270703e-01 +6.3543758906e+01 -6.1896036829e+01 8.8707643025e+01 0.0000000000e+00 0.0000e+00 1.0000e+00
       14  1    4    4    0    0 +4.1531244808e+01 +1.3117155005e+01 +2.0947303323e+00 4.3603806553e+01 0.0000000000e+00 0.0000e+00 -1.0000e+00
       -5  1    5    5    0  502 -5.0548186315e+00 -8.0936881965e+01 -1.7533788533e+01 8.3101466858e+01 4.7000000000e+00 0.0000e+00 1.0000e+00
       13  1    6    6    0    0 +2.6877321155e+00 -4.1683441103e+01 +2.9594961208e+01 5.1191746356e+01 0.0000000000e+00 0.0000e+00 -1.0000e+00
      -14  1    6    6    0    0 +3.5872958130e+01 +2.7429831317e+01 +6.9821789897e+01 8.3152553271e+01 0.0000000000e+00 0.0000e+00 1.0000e+00
<mgrwt>
<rscale>  2 0.20048009E+03</rscale>
<asrwt>0</asrwt>
<pdfrwt beam="1">  1       21 0.33656656E-01 0.20143942E+03</pdfrwt>
<pdfrwt beam="2">  1       21 0.32166289E-01 0.20143942E+03</pdfrwt>
<totfact> 0.78758829E+04</totfact>
</mgrwt>
</event>
<event>
13      2 +1.4674046e+01 3.01701300e+02 7.54677100e-03 1.08444900e-01
       21 -1    0    0  503  502 +0.0000000000e+00 +0.0000000000e+00 +5.5635216834e+02 5.5635216834e+02 0.0000000000e+00 0.0000e+00 1.0000e+00
       21 -1    0    0  504  503 -0.0000000000e+00 -0.0000000000e+00 -2.6553640377e+02 2.6553640377e+02 0.0000000000e+00 0.0000e+00 -1.0000e+00
        6  2    1    2  501    0 -1.5765242191e+02 -1.4479263985e+02 -7.4217841437e+01 2.8562033754e+02 1.7392956776e+02 0.0000e+00 0.0000e+00
       24  2    3    3    0    0 -1.7952079700e+02 -9.2552525764e+01 -7.2023582394e+01 2.2875066089e+02 7.9660415869e+01 0.0000e+00 0.0000e+00
       -6  2    1    2    0  502 +1.9138320220e+02 +1.7067627381e+02 +3.8103153770e+02 4.9084068935e+02 1.7315204035e+02 0.0000e+00 0.0000e+00
      -24  2    5    5    0    0 +1.8466420450e+02 +1.7864662252e+02 +2.7730024695e+02 3.8648101289e+02 8.0353358419e+01 0.0000e+00 0.0000e+00
        5  1    3    3  501    0 +2.1868375093e+01 -5.2240114089e+01 -2.1942590426e+00 5.6869676647e+01 4.7000000000e+00 0.0000e+00 -1.0000e+00
      -13  1    4    4    0    0 -7.9921772858e+01 -9.9334905096e+00 +2.3565998393e-01 8.0537069391e+01 0.0000000000e+00 0.0000e+00 1.0000e+00
       14  1    4    4    0    0 -9.9599024146e+01 -8.2619035254e+01 -7.2259242378e+01 1.4821359150e+02 0.0000000000e+00 0.0000e+00 -1.0000e+00
       -5  1    5    5    0  502 +6.7189976989e+00 -7.9703487132e+00 +1.0373129076e+02 1.0435967646e+02 4.7000000000e+00 0.0000e+00 1.0000e+00
       13  1    6    6    0    0 +1.4192218149e+02 +1.7214942924e+02 +2.0938566576e+02 3.0597334625e+02 0.0000000000e+00 0.0000e+00 -1.0000e+00
      -14  1    6    6    0    0 +4.2742023008e+01 +6.4971932797e+00 +6.7914581186e+01 8.0507666647e+01 0.0000000000e+00 0.0000e+00 1.0000e+00
       21  1    1    2  504  501 -3.3730780289e+01 -2.5883633952e+01 -1.5997931701e+01 4.5427545214e+01 0.0000000000e+00 0.0000e+00 1.0000e+00
<mgrwt>
<rscale>  3 0.30158932E+03</rscale>
<asrwt>0</asrwt>
<pdfrwt beam="1">  1       21 0.85592641E-01 0.30170128E+03</pdfrwt>
<pdfrwt beam="2">  1       21 0.40851755E-01 0.30170128E+03</pdfrwt>
<totfact> 0.63686565E+03</totfact>
</mgrwt>
</event>
<event>
13      2 +1.4674046e+01 1.79183800e+02 7.54677100e-03 1.16869500e-01
       21 -1    0    0  504  502 +0.0000000000e+00 +0.0000000000e+00 +3.1894041499e+02 3.1894041499e+02 0.0000000000e+00 0.0000e+00 -1.0000e+00
       21 -1    0    0  501  503 -0.0000000000e+00 -0.0000000000e+00 -3.1079214025e+02 3.1079214025e+02 0.0000000000e+00 0.0000e+00 -1.0000e+00
        6  2    1    2  501    0 +3.8627455376e+01 +1.7517721951e+01 +5.5649228483e+00 1.7837640563e+02 1.7317107966e+02 0.0000e+00 0.0000e+00
       24  2    3    3    0    0 +8.3145148484e+01 +2.8815180070e+01 +3.2720469747e+01 1.2481362670e+02 8.2245862821e+01 0.0000e+00 0.0000e+00
       -6  2    1    2    0  502 -4.8508875810e+01 +1.4457799141e+01 -1.8657736988e+02 2.5925759397e+02 1.7274618981e+02 0.0000e+00 0.0000e+00
      -24  2    5    5    0    0 -3.3446317398e+01 +7.1093637503e+01 -8.0697865678e+01 1.3814996307e+02 8.0001908297e+01 0.0000e+00 0.0000e+00
        5  1    3    3  501    0 -4.4517693108e+01 -1.1297458119e+01 -2.7155546899e+01 5.3562778933e+01 4.7000000000e+00 0.0000e+00 -1.0000e+00
      -13  1    4    4    0    0 -6.0978462706e+00 +2.0844516472e+01 +2.7529764878e+01 3.5065161490e+01 0.0000000000e+00 0.0000e+00 1.0000e+00
       14  1    4    4    0    0 +8.9242994754e+01 +7.9706635979e+00 +5.1907048694e+00 8.9748465212e+01 0.0000000000e+00 0.0000e+00 -1.0000e+00
       -5  1    5    5    0  502 -1.5062558412e+01 -5.6635838362e+01 -1.0587950420e+02 1.2110763090e+02 4.7000000000e+00 0.0000e+00 1.0000e+00
       13  1    6    6    0    0 -8.8969030937e+00 +5.9857733515e+01 -9.0973223740e+01 1.0926221023e+02 0.0000000000e+00 0.0000e+00 -1.0000e+00
      -14  1    6    6    0    0 -2.4549414304e+01 +1.1235903988e+01 +1.0275358062e+01 2.8887752845e+01 0.0000000000e+00 0.0000e+00 1.0000e+00
       21  1    1    2  504  503 +9.8814204346e+00 -3.1975521091e+01 +1.8916072177e+02 1.9209855564e+02 0.0000000000e+00 0.0000e+00 1.0000e+00
<mgrwt>
<rscale>  3 0.17908105E+03</rscale>
<asrwt>0</asrwt>
<pdfrwt beam="1">  1       21 0.49067756E-01 0.17918379E+03</pdfrwt>
<pdfrwt beam="2">  1       21 0.47814175E-01 0.17918379E+03</pdfrwt>
<totfact> 0.16709080E+04</totfact>
</mgrwt>
</event>
<event>
13      2 +1.4674046e+01 2.25977700e+02 7.54677100e-03 1.13012300e-01
       21 -1    0    0  501  502 +0.0000000000e+00 +0.0000000000e+00 +1.0737990508e+03 1.0737990508e+03 0.0000000000e+00 0.0000e+00 -1.0000e+00
       21 -1    0    0  502  503 -0.0000000000e+00 -0.0000000000e+00 -5.7517206582e+01 5.7517206582e+01 0.0000000000e+00 0.0000e+00 1.0000e+00
       -6  2    1    2    0  503 +1.1085064604e+02 -9.3766821164e+01 +2.6758440524e+02 3.5023897763e+02 1.7316421410e+02 0.0000e+00 0.0000e+00
      -24  2    3    3    0    0 +9.5881946278e+01 -3.4310933541e+01 +2.5012645315e+02 2.8207512197e+02 8.1440432761e+01 0.0000e+00 0.0000e+00
        6  2    1    2  501    0 -1.1085064604e+02 +9.3766821164e+01 +7.4869743902e+02 7.8107727979e+02 1.6868248083e+02 0.0000e+00 0.0000e+00
       24  2    5    5    0    0 -1.0096276634e+02 +4.8502769294e+00 +5.1298755058e+02 5.2891629251e+02 7.9869969653e+01 0.0000e+00 0.0000e+00
        5  1    5    5  501    0 -9.8878796993e+00 +8.8916544235e+01 +2.3570988844e+02 2.5216098729e+02 4.7000000000e+00 0.0000e+00 -1.0000e+00
      -13  1    6    6    0    0 -1.0726250234e+02 -1.3388713229e+01 +4.0280375506e+02 4.1705559238e+02 0.0000000000e+00 0.0000e+00 1.0000e+00
       14  1    6    6    0    0 +6.2997359989e+00 +1.8238990158e+01 +1.1018379553e+02 1.1186070012e+02 0.0000000000e+00 0.0000e+00 -1.0000e+00
       -5  1    3    3    0  504 -4.4664712255e+00 -2.3279516543e+01 +1.8676958198e+00 2.4237647232e+01 4.7000000000e+00 0.0000e+00 1.0000e+00
       13  1    4    4    0    0 +4.7564396617e+01 -1.3722922308e+01 +2.1060607597e+02 2.1634604147e+02 0.0000000000e+00 0.0000e+00 -1.0000e+00
      -14  1    4    4    0    0 +4.8317549662e+01 -2.0588011233e+01 +3.9520377176e+01 6.5729080505e+01 0.0000000000e+00 0.0000e+00 1.0000e+00
       21  1    3    3  504  503 +1.9435170985e+01 -3.6176371081e+01 +1.5590256270e+01 4.3926208422e+01 0.0000000000e+00 0.0000e+00 1.0000e+00
<mgrwt>
<rscale>  3 0.22511891E+03</rscale>
<asrwt>0</asrwt>
<pdfrwt beam="1">  1       21 0.16519984E+00 0.22597771E+03</pdfrwt>
<pdfrwt beam="2">  1       21 0.88488018E-02 0.22597771E+03</pdfrwt>
<totfact> 0.22723959E+04</totfact>
</mgrwt>
</event>
<event>
13      2 +1.4674046e+01 1.76979400e+02 7.54677100e-03 1.17102400e-01
       21 -1    0    0  504  502 +0.0000000000e+00 +0.0000000000e+00 +2.7050434995e+02 2.7050434995e+02 0.0000000000e+00 0.0000e+00 -1.0000e+00
       21 -1    0    0  501  503 -0.0000000000e+00 -0.0000000000e+00 -1.4958896520e+02 1.4958896520e+02 0.0000000000e+00 0.0000e+00 -1.0000e+00
        6  2    1    2  501    0 +2.2610299502e+01 +2.9376920459e+01 +1.2803752219e+01 1.7809223714e+02 1.7372011904e+02 0.0000e+00 0.0000e+00
       24  2    3    3    0    0 +1.8607064108e+01 -3.0046284099e+01 +5.5467244630e+01 1.0467965840e+02 8.1438403915e+01 0.0000e+00 0.0000e+00
       -6  2    1    2    0  502 +7.0011487525e+00 -3.6267220658e+01 +6.2677455298e+01 1.8733318463e+02 1.7262946239e+02 0.0000e+00 0.0000e+00
      -24  2    5    5    0    0 -5.2608556200e+01 -4.2296728666e+01 +3.0765987062e+00 1.0269262699e+02 7.7328110914e+01 0.0000e+00 0.0000e+00
        5  1    3    3  501    0 +4.0032353940e+00 +5.9423204558e+01 -4.2663492410e+01 7.3412578746e+01 4.7000000000e+00 0.0000e+00 -1.0000e+00
      -13  1    4    4    0    0 -7.3166167815e+00 +2.4901811367e+01 +2.7440512301e+01 3.7770554746e+01 0.0000000000e+00 0.0000e+00 1.0000e+00
       14  1    4    4    0    0 +2.5923680890e+01 -5.4948095466e+01 +2.8026732329e+01 6.6909103650e+01 0.0000000000e+00 0.0000e+00 -1.0000e+00
       -5  1    5    5    0  502 +5.9609704952e+01 +6.0295080073e+00 +5.9600856592e+01 8.4640557641e+01 4.7000000000e+00 0.0000e+00 1.0000e+00
       13  1    6    6    0    0 -1.5922176147e+01 +9.5008975870e-01 +3.4391190814e+01 3.7910056310e+01 0.0000000000e+00 0.0000e+00 -1.0000e+00
      -14  1    6    6    0    0 -3.6686380053e+01 -4.3246818424e+01 -3.1314592108e+01 6.4782570681e+01 0.0000000000e+00 0.0000e+00 1.0000e+00
       21  1    1    2  504  503 -2.9611448255e+01 +6.8903001993e+00 +4.5434177240e+01 5.4667893375e+01 0.0000000000e+00 0.0000e+00 -1.0000e+00
<mgrwt>
<rscale>  3 0.17671115E+03</rscale>
<asrwt>0</asrwt>
<pdfrwt beam="1">  1       21 0.41616054E-01 0.17697937E+03</pdfrwt>
<pdfrwt beam="2">  1       21 0.23013687E-01 0.17697937E+03</pdfrwt>
<totfact> 0.99141926E+04</totfact>
</mgrwt>
</event>
<event>
12      1 +1.4674046e+01 2.00677400e+02 7.54677100e-03 1.14956600e-01
       21 -1    0    0  503  502 +0.0000000000e+00 +0.0000000000e+00 +3.2408160445e+02 3.2408160445e+02 0.0000000000e+00 0.0000e+00 1.0000e+00
       21 -1    0    0  501  503 -0.0000000000e+00 -0.0000000000e+00 -1.7609361969e+02 1.7609361969e+02 0.0000000000e+00 0.0000e+00 1.0000e+00
        6  2    1    2  501    0 -9.6387308510e+01 -2.4393245969e+01 -6.2953771486e+01 2.1032024669e+02 1.7431547588e+02 0.0000e+00 0.0000e+00
       24  2    3    3    0    0 -3.6266756359e+01 +3.1251153223e+01 -8.5256189071e+01 1.2528926538e+02 7.8338177468e+01 0.0000e+00 0.0000e+00
       -6  2    1    2    0  502 +9.6387308510e+01 +2.4393245969e+01 +2.1094175625e+02 2.8985497746e+02 1.7214511243e+02 0.0000e+00 0.0000e+00
      -24  2    5    5    0    0 -4.1571051955e+00 -2.2952548384e+01 +6.4186439447e+01 1.0570825231e+02 8.0686024795e+01 0.0000e+00 0.0000e+00
        5  1    3    3  501    0 -6.0120552152e+01 -5.5644399192e+01 +2.2302417585e+01 8.5030981310e+01 4.7000000000e+00 0.0000e+00 -1.0000e+00
      -13  1    4    4    0    0 -1.7211049435e+01 -2.5830471950e+01 -3.5914195500e+01 4.7468546873e+01 0.0000000000e+00 0.0000e+00 1.0000e+00
       14  1    4    4    0    0 -1.9055706924e+01 +5.7081625173e+01 -4.9341993571e+01 7.7820718503e+01 0.0000000000e+00 0.0000e+00 -1.0000e+00
       -5  1    5    5    0  502 +1.0054441371e+02 +4.7345794352e+01 +1.4675531680e+02 1.8414672514e+02 4.7000000000e+00 0.0000e+00 1.0000e+00
       13  1    6    6    0    0 +1.1329039961e+00 +3.0205808713e+01 +2.7847162570e+01 4.1099133990e+01 0.0000000000e+00 0.0000e+00 -1.0000e+00
      -14  1    6    6    0    0 -5.2900091915e+00 -5.3158357097e+01 +3.6339276877e+01 6.4609118323e+01 0.0000000000e+00 0.0000e+00 1.0000e+00
<mgrwt>
<rscale>  2 0.20020517E+03</rscale>
<asrwt>0</asrwt>
<pdfrwt beam="1">  1       21 0.49858708E-01 0.20067742E+03</pdfrwt>
<pdfrwt beam="2">  1       21 0.27091326E-01 0.20067742E+03</pdfrwt>
<totfact> 0.49574142E+04</totfact>
</mgrwt>
</event>
<event>
13      2 +1.4674046e+01 1.94211900e+02 7.54677100e-03 1.15827100e-01
       21 -1    0    0  504  502 +0.0000000000e+00 +0.0000000000e+00 +8.6545504527e+01 8.6545504527e+01 0.0000000000e+00 0.0000e+00 -1.0000e+00
       21 -1    0    0  502  503 -0.0000000000e+00 -0.0000000000e+00 -5.8295871053e+02 5.8295871053e+02 0.0000000000e+00 0.0000e+00 -1.0000e+00
       -6  2    1    2    0  503 +2.6557820601e+01 +6.3289283131e+00 -4.2764057267e+02 4.6347526152e+02 1.7659978900e+02 0.0000e+00 0.0000e+00
      -24  2    3    3    0    0 +5.3899124468e+01 +4.2204895030e+01 -1.5480122935e+02 1.8689249063e+02 7.9240227563e+01 0.0000e+00 0.0000e+00
        6  2    1    2  504    0 -2.6557820601e+01 -6.3289283131e+00 -6.8772633328e+01 2.0602895354e+02 1.9228333633e+02 0.0000e+00 0.0000e+00
       24  2    5    5    0    0 +4.5380388354e+01 +3.3262174271e+01 -4.9460278353e+01 1.0940582550e+02 7.9734331588e+01 0.0000e+00 0.0000e+00
        5  1    5    5  501    0 -6.4122641973e+01 -1.8755546951e+01 +2.7865535211e-01 6.6975005814e+01 4.7000000000e+00 0.0000e+00 -1.0000e+00
      -13  1    6    6    0    0 +3.3877188256e+01 +7.2239722162e+00 -6.7384850917e+01 7.5766534775e+01 0.0000000000e+00 0.0000e+00 1.0000e+00
       14  1    6    6    0    0 +1.1503200098e+01 +2.6038202055e+01 +1.7924572564e+01 3.3639290723e+01 0.0000000000e+00 0.0000e+00 -1.0000e+00
       -5  1    3    3    0  503 -2.7341303867e+01 -3.5875966717e+01 -2.7283934332e+02 2.7658277088e+02 4.7000000000e+00 0.0000e+00 1.0000e+00
       13  1    4    4    0    0 +6.3736959572e+01 +5.7922813908e+01 -1.2949785033e+02 1.5552217085e+02 0.0000000000e+00 0.0000e+00 -1.0000e+00
      -14  1    4    4    0    0 -9.8378351038e+00 -1.5717918878e+01 -2.5303379018e+01 3.1370319781e+01 0.0000000000e+00 0.0000e+00 1.0000e+00
       21  1    5    5  504  501 -7.8155669816e+00 -2.0835555633e+01 -1.9591010327e+01 2.9648122224e+01 0.0000000000e+00 0.0000e+00 1.0000e+00
<mgrwt>
<rscale>  3 0.19021141E+03</rscale>
<asrwt>0</asrwt>
<pdfrwt beam="1">  1       21 0.13314693E-01 0.19421188E+03</pdfrwt>
<pdfrwt beam="2">  1       21 0.89685955E-01 0.19421188E+03</pdfrwt>
<totfact> 0.51526692E+04</totfact>
</mgrwt>
</event>
<event>
14      3 +1.4674046e+01 2.58333000e+02 7.54677100e-03 1.10852300e-01
       21 -1    0    0  504  502 +0.0000000000e+00 +0.0000000000e+00 +2.9582619472e+02 2.9582619472e+02 0.0000000000e+00 0.0000e+00 -1.0000e+00
       21 -1    0    0  501  503 -0.0000000000e+00 -0.0000000000e+00 -3.9522157194e+02 3.9522157194e+02 0.0000000000e+00 0.0000e+00 -1.0000e+00
        6  2    1    2  501    0 -6.5063360426e+01 +1.7057511980e+02 -2.8880110916e+01 2.5315571439e+02 1.7298740577e+02 0.0000e+00 0.0000e+00
       24  2    3    3    0    0 +1.7193463320e+01 +3.6404251694e+01 +1.0185518495e+01 9.0932965361e+01 8.0896073328e+01 0.0000e+00 0.0000e+00
       -6  2    1    2    0  505 +8.2256364150e+01 -1.8064781013e+02 -1.3974102818e+02 2.9595602264e+02 1.6930053642e+02 0.0000e+00 0.0000e+00
      -24  2    5    5    0    0 +1.0789458220e+02 -9.1432718800e+01 -6.0958727934e+01 1.7411435662e+02 8.1232134855e+01 0.0000e+00 0.0000e+00
        5  1    3    3  501    0 -8.2256823746e+01 +1.3417086810e+02 -3.9065629411e+01 1.6222274903e+02 4.7000000000e+00 0.0000e+00 -1.0000e+00
      -13  1    4    4    0    0 -1.0209716483e+01 +3.9930284454e+01 -2.3438608485e+01 4.7413440024e+01 0.0000000000e+00 0.0000e+00 1.0000e+00
       14  1    4    4    0    0 +2.7403179803e+01 -3.5260327591e+00 +3.3624126980e+01 4.3519525336e+01 0.0000000000e+00 0.0000e+00 -1.0000e+00
       -5  1    5    5    0  505 -2.5638218054e+01 -8.9215091334e+01 -7.8782300250e+01 1.2184166602e+02 4.7000000000e+00 0.0000e+00 1.0000e+00
       13  1    6    6    0    0 +1.0483300330e+02 -1.0063551887e+02 -6.9598524232e+01 1.6112548158e+02 0.0000000000e+00 0.0000e+00 -1.0000e+00
      -14  1    6    6    0    0 +3.0615789001e+00 +9.2028000733e+00 +8.6397962986e+00 1.2988875033e+01 0.0000000000e+00 0.0000e+00 1.0000e+00
       21  1    1    2  504  503 +2.5695441887e+01 +5.1757173420e+01 +5.6443858487e+01 8.0777285762e+01 0.0000000000e+00 0.0000e+00 1.0000e+00
       21  1    1    2  505  502 -4.2888445611e+01 -4.1684483082e+01 +1.2781903392e+01 6.1158743865e+01 0.0000000000e+00 0.0000e+00 -1.0000e+00
<mgrwt>
<rscale>  4 0.25771723E+03</rscale>
<asrwt>0</asrwt>
<pdfrwt beam="1">  1       21 0.45511722E-01 0.25833297E+03</pdfrwt>
<pdfrwt beam="2">  1       21 0.60803319E-01 0.25833297E+03</pdfrwt>
<totfact> 0.11208674E+04</totfact>
</mgrwt>
</event>
<event>
12      1 +1.4674046e+01 2.31560600e+02 7.54677100e-03 1.12561200e-01
       21 -1    0    0  501  502 +0.0000000000e+00 +0.0000000000e+00 +3.4569724122e+01 3.4569724122e+01 0.0000000000e+00 0.0000e+00 -1.0000e+00
       21 -1    0    0  502  503 -0.0000000000e+00 -0.0000000000e+00 -1.8167613927e+03 1.8167613927e+03 0.0000000000e+00 0.0000e+00 1.0000e+00
       -6  2    1    2    0  503 +1.4205447253e+02 +5.9746778203e+01 -5.3604664049e+02 5.8392321408e+02 1.7283277609e+02 0.0000e+00 0.0000e+00
      -24  2    3    3    0    0 +6.2745339477e+01 +1.2408533703e+01 -1.2778197168e+02 1.6531483173e+02 8.3125278757e+01 0.0000e+00 0.0000e+00
        6  2    1    2  501    0 -1.4205447253e+02 -5.9746778203e+01 -1.2461450281e+03 1.2674079027e+03 1.7232588379e+02 0.0000e+00 0.0000e+00
       24  2    5    5    0    0 -1.5656753649e+02 -8.7637245937e+01 -1.1321968095e+03 1.1491083097e+03 7.9916277453e+01 0.0000e+00 0.0000e+00
        5  1    5    5  501    0 +1.4513063964e+01 +2.7890467734e+01 -1.1394821854e+02 1.1829959309e+02 4.7000000000e+00 0.0000e+00 -1.0000e+00
      -13  1    6    6    0    0 -1.3924671549e+02 -4.3673363184e+01 -7.5609934384e+02 7.7005404238e+02 0.0000000000e+00 0.0000e+00 1.0000e+00
       14  1    6    6    0    0 -1.7320821002e+01 -4.3963882753e+01 -3.7609746571e+02 3.7905426728e+02 0.0000000000e+00 0.0000e+00 -1.0000e+00
       -5  1    3    3    0  503 +7.9309133054e+01 +4.7338244500e+01 -4.0826466881e+02 4.1860838235e+02 4.7000000000e+00 0.0000e+00 1.0000e+00
       13  1    4    4    0    0 +2.3728461338e+01 -2.9840987548e+01 -1.9768513034e+01 4.2945529719e+01 0.0000000000e+00 0.0000e+00 -1.0000e+00
      -14  1    4    4    0    0 +3.9016878139e+01 +4.2249521251e+01 -1.0801345865e+02 1.2236930201e+02 0.0000000000e+00 0.0000e+00 1.0000e+00
<mgrwt>
<rscale>  2 0.23146604E+03</rscale>
<asrwt>0</asrwt>
<pdfrwt beam="1">  1       21 0.53184177E-02 0.23156062E+03</pdfrwt>
<pdfrwt beam="2">  1       21 0.27950183E+00 0.23156062E+03</pdfrwt>
<totfact> 0.10456139E+04</totfact>
</mgrwt>
</event>
<event>
14      3 +1.4674046e+01 2.94789100e+02 7.54677100e-03 1.08801000e-01
       21 -1    0    0  501  502 +0.0000000000e+00 +0.0000000000e+00 +2.7858619789e+02 2.7858619789e+02 0.0000000000e+00 0.0000e+00 1.0000e+00
       21 -1    0    0  502  503 -0.0000000000e+00 -0.0000000000e+00 -6.1515681010e+02 6.1515681010e+02 0.0000000000e+00 0.0000e+00 -1.0000e+00
       -6  2    1    2    0  504 +2.2369570115e+02 +1.2932520389e+02 -3.3140914911e+02 4.5474389382e+02 1.7376768911e+02 0.0000e+00 0.0000e+00
      -24  2    3    3    0    0 +8.5872501044e+01 +2.1455583845e+01 -1.8625236945e+02 2.2004818348e+02 7.6790815934e+01 0.0000e+00 0.0000e+00
        6  2    1    2  501    0 -1.6058788537e+02 -1.7166978912e+02 +1.0114011242e+02 3.0832514863e+02 1.7197700286e+02 0.0000e+00 0.0000e+00
       24  2    5    5    0    0 -1.8514864036e+02 -1.6416704525e+02 +1.0722940108e+02 2.8151673041e+02 8.0763155399e+01 0.0000e+00 0.0000e+00
        5  1    5    5  501    0 +2.4560754992e+01 -7.5027438685e+00 -6.0892886531e+00 2.6808418223e+01 4.7000000000e+00 0.0000e+00 -1.0000e+00
      -13  1    6    6    0    0 -7.9488523724e+01 -1.0769667781e+02 +2.4898265459e+01 1.3615037069e+02 0.0000000000e+00 0.0000e+00 1.0000e+00
       14  1    6    6    0    0 -1.0566011664e+02 -5.6470367443e+01 +8.2331135617e+01 1.4536635972e+02 0.0000000000e+00 0.0000e+00 -1.0000e+00
       -5  1    3    3    0  505 +1.3315540475e+02 +8.0929832807e+01 -1.1329964261e+02 1.9271455230e+02 4.7000000000e+00 0.0000e+00 1.0000e+00
       13  1    4    4    0    0 +1.2111787783e+01 +7.9691919692e+00 +4.4236915312e+00 1.5158247614e+01 0.0000000000e+00 0.0000e+00 -1.0000e+00
      -14  1    4    4    0    0 +7.3760713260e+01 +1.3486391876e+01 -1.9067606098e+02 2.0488993586e+02 0.0000000000e+00 0.0000e+00 1.0000e+00
       21  1    1    2  504  503 -6.3107815781e+01 +4.2344585232e+01 -1.0630157553e+02 1.3067396554e+02 0.0000000000e+00 0.0000e+00 -1.0000e+00
       21  1    3    3  505  504 +4.6677953592e+00 +2.6939787237e+01 -3.1857137045e+01 4.1981158042e+01 0.0000000000e+00 0.0000e+00 1.0000e+00
<mgrwt>
<rscale>  4 0.29452575E+03</rscale>
<asrwt>0</asrwt>
<pdfrwt beam="1">  1       21 0.42859415E-01 0.29478910E+03</pdfrwt>
<pdfrwt beam="2">  1       21 0.94639509E-01 0.29478910E+03</pdfrwt>
<totfact> 0.45762559E+03</totfact>
</mgrwt>
</event>
<event>
13      2 +1.4674046e+01 2.07409800e+02 7.54677100e-03 1.14376600e-01
       21 -1    0    0  501  502 +0.0000000000e+00 +0.0000000000e+00 +5.8542090842e+02 5.8542090842e+02 0.0000000000e+00 0.0000e+00 1.0000e+00
       21 -1    0    0  504  503 -0.0000000000e+00 -0.0000000000e+00 -1.5135915746e+02 1.5135915746e+02 0.0000000000e+00 0.0000e+00 1.0000e+00
       -6  2    1    2    0  503 -5.0427186440e+00 -1.1431317876e+02 +4.0133462377e+02 4.5168802968e+02 1.7279949093e+02 0.0000e+00 0.0000e+00
      -24  2    3    3    0    0 -2.2130347325e+01 -7.3015018983e+01 +1.0334644119e+02 1.5033014938e+02 7.8087909677e+01 0.0000e+00 0.0000e+00
        6  2    1    2  501    0 -1.9587920233e+01 +1.1133668931e+02 +8.7570758511e+01 2.2489775278e+02 1.7358230455e+02 0.0000e+00 0.0000e+00
       24  2    5    5    0    0 -6.6543881745e+01 +5.4991086238e+01 +9.4323618304e+01 1.5109138163e+02 8.0495669872e+01 0.0000e+00 0.0000e+00
        5  1    5    5  501    0 +4.6955961512e+01 +5.6345603074e+01 -6.7528597931e+00 7.3806371152e+01 4.7000000000e+00 0.0000e+00 -1.0000e+00
      -13  1    6    6    0    0 -4.4878176217e+00 +5.5036127942e+01 +3.5916217940e+01 6.5871773902e+01 0.0000000000e+00 0.0000e+00 1.0000e+00
       14  1    6    6    0    0 -6.2056064124e+01 -4.5041704030e-02 +5.8407400364e+01 8.5219607724e+01 0.0000000000e+00 0.0000e+00 -1.0000e+00
       -5  1    3    3    0  503 +1.7087628681e+01 -4.1298159780e+01 +2.9798818259e+02 3.0135788030e+02 4.7000000000e+00 0.0000e+00 1.0000e+00
       13  1    4    4    0    0 +1.8853803349e+01 -6.4521114525e+01 +6.0567087496e+01 9.0481004680e+01 0.0000000000e+00 0.0000e+00 -1.0000e+00
      -14  1    4    4    0    0 -4.0984150674e+01 -8.4939044579e+00 +4.2779353692e+01 5.9849144703e+01 0.0000000000e+00 0.0000e+00 1.0000e+00
       21  1    1    2  504  502 +2.4630638877e+01 +2.9764894511e+00 -5.4843631322e+01 6.0194283429e+01 0.0000000000e+00 0.0000e+00 1.0000e+00
<mgrwt>
<rscale>  3 0.20724595E+03</rscale>
<asrwt>0</asrwt>
<pdfrwt beam="1">  1       21 0.90064754E-01 0.20740982E+03</pdfrwt>
<pdfrwt beam="2">  1       21 0.23286025E-01 0.20740982E+03</pdfrwt>
<totfact> 0.18018002E+04</totfact>
</mgrwt>
</event>
<event>
12      1 +1.4674046e+01 1.75981000e+02 7.54677100e-03 1.17273300e-01
       21 -1    0    0  503  502 +0.0000000000e+00 +0.0000000000e+00 +9.9928378579e+02 9.9928378579e+02 0.0000000000e+00 0.0000e+00 1.0000e+00
       21 -1    0    0  501  503 -0.0000000000e+00 -0.0000000000e+00 -1.5687004232e+02 1.5687004232e+02 0.0000000000e+00 0.0000e+00 1.0000e+00
        6  2    1    2  501    0 -2.5662408162e+01 -9.8617351868e+00 -9.7112742624e+01 2.0099797514e+02 1.7382027562e+02 0.0000e+00 0.0000e+00
       24  2    3    3    0    0 +2.0165243965e+01 +1.8254791917e+01 -1.1515747753e+02 1.4409089953e+02 8.2225714993e+01 0.0000e+00 0.0000e+00
       -6  2    1    2    0  502 +2.5662408162e+01 +9.8617351868e+00 +9.3952648609e+02 9.5515585297e+02 1.6987310672e+02 0.0000e+00 0.0000e+00
      -24  2    5    5    0    0 +3.0244345476e+01 -9.7470545645e+00 +9.2691934874e+02 9.3093749842e+02 8.0345637052e+01 0.0000e+00 0.0000e+00
        5  1    3    3  501    0 -4.5827652127e+01 -2.8116527104e+01 +1.8044734904e+01 5.6907075603e+01 4.7000000000e+00 0.0000e+00 -1.0000e+00
      -13  1    4    4    0    0 -1.6421654211e+01 -1.7613982067e+01 -8.1049635152e+00 2.5408926086e+01 0.0000000000e+00 0.0000e+00 1.0000e+00
       14  1    4    4    0    0 +3.6586898176e+01 +3.5868773984e+01 -1.0705251401e+02 1.1868197345e+02 0.0000000000e+00 0.0000e+00 -1.0000e+00
       -5  1    5    5    0  502 -4.5819373144e+00 +1.9608789751e+01 +1.2607137357e+01 2.4218354556e+01 4.7000000000e+00 0.0000e+00 1.0000e+00
       13  1    6    6    0    0 -6.4664824194e+00 -2.5483681693e+01 +1.1218127741e+02 1.1522097217e+02 0.0000000000e+00 0.0000e+00 -1.0000e+00
      -14  1    6    6    0    0 +3.6710827896e+01 +1.5736627129e+01 +8.1473807133e+02 8.1571652624e+02 0.0000000000e+00 0.0000e+00 1.0000e+00
<mgrwt>
<rscale>  2 0.17499837E+03</rscale>
<asrwt>0</asrwt>
<pdfrwt beam="1">  1       21 0.15373596E+00 0.17598097E+03</pdfrwt>
<pdfrwt beam="2">  1       21 0.24133853E-01 0.17598097E+03</pdfrwt>
<totfact> 0.46048562E+03</totfact>
</mgrwt>
</event>
<event>
14      3 +1.4674046e+01 2.62459100e+02 7.54677100e-03 1.10600900e-01
       -2 -1    0    0    0  501 -0.0000000000e+00 +0.0000000000e+00 +2.9472315896e+02 2.9472315896e+02 0.0000000000e+00 0.0000e+00 1.0000e+00
        1 -1    0    0  502    0 +0.0000000000e+00 -0.0000000000e+00 -2.3938980705e+03 2.3938980705e+03 0.0000000000e+00 0.0000e+00 -1.0000e+00
       -6  2    1    2    0  501 +1.3360685215e+02 +1.3782874680e+02 -1.9899615298e+02 3.2413076232e+02 1.6915592745e+02 0.0000e+00 0.0000e+00
      -24  2    3    3    0    0 +5.7289422416e+00 +6.2723479211e+01 -1.1246664934e+02 1.5236637118e+02 8.1238588299e+01 0.0000e+00 0.0000e+00
        6  2    1    2  502    0 -1.6009902345e+02 -1.3439756570e+02 -2.3588261927e+02 3.5933284257e+02 1.7258354121e+02 0.0000e+00 0.0000e+00
       24  2    5    5    0    0 -5.8517189528e+01 -1.3429405213e+01 -1.4521648835e+02 1.7713898392e+02 8.1766623624e+01 0.0000e+00 0.0000e+00
        5  1    5    5  502    0 -1.0158183392e+02 -1.2096816049e+02 -9.0666130921e+01 1.8219385865e+02 4.7000000000e+00 0.0000e+00 -1.0000e+00
      -13  1    6    6    0    0 +2.0773903732e+01 -4.7248548974e+00 -3.7088643516e+01 4.2772033011e+01 0.0000000000e+00 0.0000e+00 1.0000e+00
       14  1    6    6    0    0 -7.9291093259e+01 -8.7045503159e+00 -1.0812784484e+02 1.3436695091e+02 0.0000000000e+00 0.0000e+00 -1.0000e+00
       -5  1    3    3    0  501 +1.2787790990e+02 +7.5105267593e+01 -8.6529503638e+01 1.7176439113e+02 4.7000000000e+00 0.0000e+00 1.0000e+00
       13  1    4    4    0    0 +4.1917180586e+01 +3.5934432402e+01 -4.4860304093e+01 7.1139161814e+01 0.0000000000e+00 0.0000e+00 -1.0000e+00
      -14  1    4    4    0    0 -3.6188238344e+01 +2.6789046809e+01 -6.7606345252e+01 8.1227209368e+01 0.0000000000e+00 0.0000e+00 1.0000e+00
        1  1    1    2  503    0 +4.8735744458e+01 +4.5552139060e+00 -1.8335793597e+03 1.8342325891e+03 0.0000000000e+00 0.0000e+00 -1.0000e+00
       -2  1    1    2    0  503 -2.2243573155e+01 -7.9863950094e+00 +1.6928322037e+02 1.7092503547e+02 0.0000000000e+00 0.0000e+00 1.0000e+00
<mgrwt>
<rscale>  4 0.26189708E+03</rscale>
<asrwt>0</asrwt>
<pdfrwt beam="2">  1        1 0.36829201E+00 0.26245915E+03</pdfrwt>
<pdfrwt beam="1">  1       -2 0.45342025E-01 0.26245915E+03</pdfrwt>
<totfact> 0.77900782E+00</totfact>
</mgrwt>
</event>
<event>
13      2 +1.4674046e+01 1.96438000e+02 7.54677100e-03 1.15332200e-01
       21 -1    0    0  503  502 +0.0000000000e+00 +0.0000000000e+00 +2.3548062604e+02 2.3548062604e+02 0.0000000000e+00 0.0000e+00 -1.0000e+00
       21 -1    0    0  501  503 -0.0000000000e+00 -0.0000000000e+00 -1.8326697750e+02 1.8326697750e+02 0.0000000000e+00 0.0000e+00 1.0000e+00
        6  2    1    2  501    0 +3.7669863277e+01 -8.0612843637e+01 +9.7924088249e+01 2.1949266159e+02 1.7512981549e+02 0.0000e+00 0.0000e+00
       24  2    3    3    0    0 +6.9035825438e+01 -1.6315869455e+01 +1.0124558391e+02 1.4772186806e+02 8.0863646039e+01 0.0000e+00 0.0000e+00
       -6  2    1    2    0  502 -3.7669863277e+01 +8.0612843637e+01 -4.5710439706e+01 1.9925494194e+02 1.7232422474e+02 0.0000e+00 0.0000e+00
      -24  2    5    5    0    0 -4.1813908248e+01 -4.9196727566e+00 +6.1631028207e+00 8.9813599869e+01 7.9094201949e+01 0.0000e+00 0.0000e+00
        5  1    3    3  501    0 -3.1365962161e+01 -6.4296974182e+01 -3.3214956613e+00 7.1770793535e+01 4.7000000000e+00 0.0000e+00 -1.0000e+00
      -13  1    4    4    0    0 -1.8600879903e+01 -4.4801861357e+00 +1.7534837170e+01 2.5952558940e+01 0.0000000000e+00 0.0000e+00 1.0000e+00
       14  1    4    4    0    0 +8.7636705341e+01 -1.1835683319e+01 +8.3710746740e+01 1.2176930912e+02 0.0000000000e+00 0.0000e+00 -1.0000e+00
       -5  1    5    5    0  504 -1.8232132328e+01 +3.0714042356e+01 -2.7885667656e+01 4.5557255269e+01 4.7000000000e+00 0.0000e+00 1.0000e+00
       13  1    6    6    0    0 -3.4903792101e+01 -3.9625207686e+01 +1.1453751599e+01 5.4033510092e+01 0.0000000000e+00 0.0000e+00 -1.0000e+00
      -14  1    6    6    0    0 -6.9101161463e+00 +3.4705534930e+01 -5.2906487778e+00 3.5780089776e+01 0.0000000000e+00 0.0000e+00 1.0000e+00
       21  1    5    5  504  502 +2.2376177298e+01 +5.4818474037e+01 -2.3987874871e+01 6.3884086806e+01 0.0000000000e+00 0.0000e+00 1.0000e+00
<mgrwt>
<rscale>  3 0.19581076E+03</rscale>
<asrwt>0</asrwt>
<pdfrwt beam="1">  1       21 0.36227789E-01 0.19643803E+03</pdfrwt>
<pdfrwt beam="2">  1       21 0.28194920E-01 0.19643803E+03</pdfrwt>
<totfact> 0.88191548E+04</totfact>
</mgrwt>
</event>
<event>
14      3 +1.4674046e+01 1.78006600e+02 7.54677100e-03 1.17206500e-01
       21 -1    0    0  501  502 +0.0000000000e+00 +0.0000000000e+00 +4.2906485769e+02 4.2906485769e+02 0.0000000000e+00 0.0000e+00 1.0000e+00
       21 -1    0    0  504  503 -0.0000000000e+00 -0.0000000000e+00 -6.9044763095e+02 6.9044763095e+02 0.0000000000e+00 0.0000e+00 1.0000e+00
       -6  2    1    2    0  503 -1.0799344262e+01 -2.9768967094e+01 +6.7945234193e+01 1.8043896532e+02 1.6413058252e+02 0.0000e+00 0.0000e+00
      -24  2    3    3    0    0 +6.4759222053e+01 -1.1506486392e+01 +3.3427544680e+01 9.5255774287e+01 6.0250358685e+01 0.0000e+00 0.0000e+00
        6  2    1    2  501    0 +2.3624194662e+01 +9.9893191491e+01 -6.7433551720e+01 2.1262049959e+02 1.7356105747e+02 0.0000e+00 0.0000e+00
       24  2    5    5    0    0 -5.9815738604e+00 +1.0212352839e+02 -1.0310520657e+02 1.6597253188e+02 8.0319383960e+01 0.0000e+00 0.0000e+00
        5  1    5    5  501    0 +2.9605768522e+01 -2.2303369014e+00 +3.5671654847e+01 4.6647967716e+01 4.7000000000e+00 0.0000e+00 -1.0000e+00
      -13  1    6    6    0    0 -9.0002106436e-01 +6.8577026823e+01 -1.3151201044e+01 6.9832461898e+01 0.0000000000e+00 0.0000e+00 1.0000e+00
       14  1    6    6    0    0 -5.0815527961e+00 +3.3546501569e+01 -8.9954005522e+01 9.6140069981e+01 0.0000000000e+00 0.0000e+00 -1.0000e+00
       -5  1    3    3    0  503 -7.5558566315e+01 -1.8262480702e+01 +3.4517689512e+01 8.5183191031e+01 4.7000000000e+00 0.0000e+00 1.0000e+00
       13  1    4    4    0    0 +6.4780885995e+00 -2.7910255092e+01 +1.0786325099e+01 3.0615237715e+01 0.0000000000e+00 0.0000e+00 -1.0000e+00
      -14  1    4    4    0    0 +5.8281133453e+01 +1.6403768700e+01 +2.2641219581e+01 6.4640536572e+01 0.0000000000e+00 0.0000e+00 1.0000e+00
       21  1    1    2  504  505 -4.1859952994e+00 -1.0923582565e+02 -4.8633347589e+02 4.9846789057e+02 0.0000000000e+00 0.0000e+00 1.0000e+00
       21  1    1    2  505  502 -8.6388551004e+00 +3.9111601258e+01 +2.2443902015e+02 2.2798513315e+02 0.0000000000e+00 0.0000e+00 1.0000e+00
<mgrwt>
<rscale>  4 0.17566528E+03</rscale>
<asrwt>0</asrwt>
<pdfrwt beam="1">  1       21 0.66009978E-01 0.17800656E+03</pdfrwt>
<pdfrwt beam="2">  1       21 0.10622271E+00 0.17800656E+03</pdfrwt>
<totfact> 0.15192063E+03</totfact>
</mgrwt>
</event>
<event>
13      2 +1.4674046e+01 2.24434800e+02 7.54677100e-03 1.13068900e-01
       21 -1    0    0  501  502 +0.0000000000e+00 +0.0000000000e+00 +4.7047722265e+02 4.7047722265e+02 0.0000000000e+00 0.0000e+00 -1.0000e+00
       21 -1    0    0  504  503 -0.0000000000e+00 -0.0000000000e+00 -4.1015222320e+02 4.1015222320e+02 0.0000000000e+00 0.0000e+00 1.0000e+00
       -6  2    1    2    0  503 +1.2270537485e+02 +7.5136687187e+01 -3.1039067495e+02 3.8360418731e+02 1.7351562077e+02 0.0000e+00 0.0000e+00
      -24  2    3    3    0    0 +2.2330635805e+01 +2.8391533027e+01 -5.2852996149e+01 1.0323310522e+02 8.0987025920e+01 0.0000e+00 0.0000e+00
        6  2    1    2  501    0 -1.2351805825e+02 -5.5131156309e+01 +1.2944598888e+02 2.5492622329e+02 1.7301722507e+02 0.0000e+00 0.0000e+00
       24  2    5    5    0    0 -1.2935356716e+02 -7.3739260037e+01 +5.5816285192e+01 1.7861280406e+02 8.1346495145e+01 0.0000e+00 0.0000e+00
        5  1    5    5  501    0 +5.8355089111e+00 +1.8608103728e+01 +7.3629703691e+01 7.6313419228e+01 4.7000000000e+00 0.0000e+00 -1.0000e+00
      -13  1    6    6    0    0 -3.6564935926e+01 -5.0629604568e+01 -8.9922752305e+00 6.3096849460e+01 0.0000000000e+00 0.0000e+00 1.0000e+00
       14  1    6    6    0    0 -9.2788631237e+01 -2.3109655469e+01 +6.4808560423e+01 1.1551595460e+02 0.0000000000e+00 0.0000e+00 -1.0000e+00
       -5  1    3    3    0  503 +1.0037473904e+02 +4.6745154160e+01 -2.5753767880e+02 2.8037108210e+02 4.7000000000e+00 0.0000e+00 1.0000e+00
       13  1    4    4    0    0 +2.8365559632e+01 +5.4605398715e+01 -4.0243213465e+01 7.3524626977e+01 0.0000000000e+00 0.0000e+00 -1.0000e+00
      -14  1    4    4    0    0 -6.0349238267e+00 -2.6213865688e+01 -1.2609782684e+01 2.9708478239e+01 0.0000000000e+00 0.0000e+00 1.0000e+00
       21  1    1    2  504  502 +8.1268340658e-01 -2.0005530878e+01 +2.4126968552e+02 2.4209903525e+02 0.0000000000e+00 0.0000e+00 -1.0000e+00
<mgrwt>
<rscale>  3 0.22433844E+03</rscale>
<asrwt>0</asrwt>
<pdfrwt beam="1">  1       21 0.72381111E-01 0.22443477E+03</pdfrwt>
<pdfrwt beam="2">  1       21 0.63100342E-01 0.22443477E+03</pdfrwt>
<totfact> 0.39024558E+03</totfact>
</mgrwt>
</event>
<event>
14      3 +1.4674046e+01 5.87942500e+02 7.54677100e-03 1.00909300e-01
       21 -1    0    0  503  502 +0.0000000000e+00 +0.0000000000e+00 +4.8171032651e+02 4.8171032651e+02 0.0000000000e+00 0.0000e+00 -1.0000e+00
       21 -1    0    0  505  503 -0.0000000000e+00 -0.0000000000e+00 -2.8157591569e+03 2.8157591569e+03 0.0000000000e+00 0.0000e+00 -1.0000e+00
        6  2    1    2  501    0 +1.4148091339e+02 -2.6437620102e+02 -2.2943991273e+02 4.1539890313e+02 1.7321071170e+02 0.0000e+00 0.0000e+00
       24  2    3    3    0    0 +5.9017349431e+01 -2.2386879711e+02 -2.0646340210e+02 3.2057749630e+02 8.0885776715e+01 0.0000e+00 0.0000e+00
       -6  2    1    2    0  502 -1.4647603893e+02 -3.0198706797e+02 +1.8300493183e+02 4.1970573527e+02 1.7323590836e+02 0.0000e+00 0.0000e+00
      -24  2    5    5    0    0 -1.2368049750e+02 -2.3037620571e+02 +2.0511471821e+02 3.4122844584e+02 7.7425725737e+01 0.0000e+00 0.0000e+00
        5  1    3    3  501    0 +8.2463563960e+01 -4.0507403912e+01 -2.2976510630e+01 9.4821406831e+01 4.7000000000e+00 0.0000e+00 -1.0000e+00
      -13  1    4    4    0    0 -1.1115787491e+01 -2.2728713837e+00 -1.8296025849e+01 2.1528382144e+01 0.0000000000e+00 0.0000e+00 1.0000e+00
       14  1    4    4    0    0 +7.0133136923e+01 -2.2159592572e+02 -1.8816737625e+02 2.9904911415e+02 0.0000000000e+00 0.0000e+00 -1.0000e+00
       -5  1    5    5    0  502 -2.2795541428e+01 -7.1610862260e+01 -2.2109786381e+01 7.8477289431e+01 4.7000000000e+00 0.0000e+00 1.0000e+00
       13  1    6    6    0    0 -7.5265676133e+01 -6.8628278446e+01 +5.7537304464e+01 1.1698420411e+02 0.0000000000e+00 0.0000e+00 -1.0000e+00
      -14  1    6    6    0    0 -4.8414821371e+01 -1.6174792727e+02 +1.4757741375e+02 2.2424424173e+02 0.0000000000e+00 0.0000e+00 1.0000e+00
       21  1    1    2  504  501 +4.9854789393e+01 -2.7312998380e+01 +3.3586575533e+01 6.6026948756e+01 0.0000000000e+00 0.0000e+00 1.0000e+00
       21  1    1    2  505  504 -4.4859663853e+01 +5.9367626737e+02 -2.3212004250e+03 2.3963378962e+03 0.0000000000e+00 0.0000e+00 -1.0000e+00
<mgrwt>
<rscale>  4 0.51836727E+03</rscale>
<asrwt>0</asrwt>
<pdfrwt beam="1">  1       21 0.74109280E-01 0.58794253E+03</pdfrwt>
<pdfrwt beam="2">  1       21 0.43319372E+00 0.58794253E+03</pdfrwt>
<totfact> 0.56252027E+00</totfact>
</mgrwt>
</event>
<event>
12      1 +1.4674046e+01 2.61190500e+02 7.54677100e-03 1.10647200e-01
       21 -1    0    0  501  502 +0.0000000000e+00 +0.0000000000e+00 +8.8439696152e+02 8.8439696152e+02 0.0000000000e+00 0.0000e+00 -1.0000e+00
       21 -1    0    0  502  503 -0.0000000000e+00 -0.0000000000e+00 -1.3704655504e+02 1.3704655504e+02 0.0000000000e+00 0.0000e+00 -1.0000e+00
       -6  2    1    2    0  503 -1.4103614330e+02 -1.3535794583e+02 +3.5660119302e+01 2.6333828253e+02 1.7280752217e+02 0.0000e+00 0.0000e+00
      -24  2    3    3    0    0 -8.2865290917e+01 -1.6104974154e+02 +3.1962578124e+01 1.9946592353e+02 7.7209925257e+01 0.0000e+00 0.0000e+00
        6  2    1    2  501    0 +1.4103614330e+02 +1.3535794583e+02 +7.1169028718e+02 7.5810523403e+02 1.7322676981e+02 0.0000e+00 0.0000e+00
       24  2    5    5    0    0 +1.4853177038e+02 +6.1459259654e+01 +4.2622140745e+02 4.6309375707e+02 8.3379927188e+01 0.0000e+00 0.0000e+00
        5  1    5    5  501    0 -7.4956270807e+00 +7.3898686177e+01 +2.8546887974e+02 2.9501147697e+02 4.7000000000e+00 0.0000e+00 -1.0000e+00
      -13  1    6    6    0    0 +4.4407449905e+01 -1.9207540069e+01 +9.4168660629e+01 1.0587109071e+02 0.0000000000e+00 0.0000e+00 1.0000e+00
       14  1    6    6    0    0 +1.0412432047e+02 +8.0666799724e+01 +3.3205274682e+02 3.5722266636e+02 0.0000000000e+00 0.0000e+00 -1.0000e+00
       -5  1    3    3    0  503 -5.8170852379e+01 +2.5691795712e+01 +3.6975411783e+00 6.3872359000e+01 4.7000000000e+00 0.0000e+00 1.0000e+00
       13  1    4    4    0    0 -8.9702841596e+01 -1.4212085597e+02 +8.1112855817e+00 1.6825792833e+02 0.0000000000e+00 0.0000e+00 -1.0000e+00
      -14  1    4    4    0    0 +6.8375506785e+00 -1.8928885575e+01 +2.3851292542e+01 3.1207995199e+01 0.0000000000e+00 0.0000e+00 1.0000e+00
<mgrwt>
<rscale>  2 0.26112101E+03</rscale>
<asrwt>0</asrwt>
<pdfrwt beam="1">  1       21 0.13606107E+00 0.26119051E+03</pdfrwt>
<pdfrwt beam="2">  1       21 0.21084086E-01 0.26119051E+03</pdfrwt>
<totfact> 0.76862115E+03</totfact>
</mgrwt>
</event>
<event>
14      3 +1.4674046e+01 2.33027900e+02 7.54677100e-03 1.12486200e-01
       21 -1    0    0  503  502 +0.0000000000e+00 +0.0000000000e+00 +1.0145797678e+03 1.0145797678e+03 0.0000000000e+00 0.0000e+00 1.0000e+00
       21 -1    0    0  501  503 -0.0000000000e+00 -0.0000000000e+00 -1.2187067533e+02 1.2187067533e+02 0.0000000000e+00 0.0000e+00 1.0000e+00
        6  2    1    2  501    0 +1.4288438550e+02 -1.8398193001e+02 +1.9199390132e+02 3.4711371564e+02 1.7135044572e+02 0.0000e+00 0.0000e+00
       24  2    3    3    0    0 +6.2441996510e+01 -1.7470865896e+02 +1.6650731469e+02 2.6209237949e+02 8.0904950992e+01 0.0000e+00 0.0000e+00
       -6  2    1    2    0  505 -2.6876592498e+01 +5.5173899355e+01 +3.0204185279e+02 3.5391195412e+02 1.7394792335e+02 0.0000e+00 0.0000e+00
      -24  2    5    5    0    0 -7.3191452283e+01 +6.8981668901e+01 +1.7375423810e+02 2.1674226789e+02 8.1677512824e+01 0.0000e+00 0.0000e+00
        5  1    3    3  501    0 +8.0442388989e+01 -9.2732710462e+00 +2.5486586631e+01 8.5021336148e+01 4.7000000000e+00 0.0000e+00 -1.0000e+00
      -13  1    4    4    0    0 -8.4402740117e+00 -5.2242622908e+01 +8.1025720834e+01 9.6776532849e+01 0.0000000000e+00 0.0000e+00 1.0000e+00
       14  1    4    4    0    0 +7.0882270522e+01 -1.2246603606e+02 +8.5481593859e+01 1.6531584664e+02 0.0000000000e+00 0.0000e+00 -1.0000e+00
       -5  1    5    5    0  505 +4.6314859786e+01 -1.3807769546e+01 +1.2828761469e+02 1.3716968623e+02 4.7000000000e+00 0.0000e+00 1.0000e+00
       13  1    6    6    0    0 -1.9842402431e+01 -3.5570576368e+00 -9.6831189786e-01 2.0181952859e+01 0.0000000000e+00 0.0000e+00 -1.0000e+00
      -14  1    6    6    0    0 -5.3349049852e+01 +7.2538726538e+01 +1.7472254999e+02 1.9656031503e+02 0.0000000000e+00 0.0000e+00 1.0000e+00
       21  1    1    2  504  502 -4.7288292707e+01 +5.5744321898e+01 +1.9839174565e+02 2.1143059569e+02 0.0000000000e+00 0.0000e+00 1.0000e+00
       21  1    1    2  505  504 -6.8719500295e+01 +7.3063708757e+01 +2.0028159270e+02 2.2399417768e+02 0.0000000000e+00 0.0000e+00 1.0000e+00
<mgrwt>
<rscale>  4 0.23254329E+03</rscale>
<asrwt>0</asrwt>
<pdfrwt beam="1">  1       21 0.15608919E+00 0.23302792E+03</pdfrwt>
<pdfrwt beam="2">  1       21 0.18749335E-01 0.23302792E+03</pdfrwt>
<totfact> 0.67903440E+03</totfact>
</mgrwt>
</event>
<event>
13      3 +1.4674046e+01 7.95822700e+02 7.54677100e-03 9.93499000e-02
       21 -1    0    0  504  503 +0.0000000000e+00 +0.0000000000e+00 +5.5959614318e+02 5.5959614318e+02 0.0000000000e+00 0.0000e+00 -1.0000e+00
        2 -1    0    0  503    0 -0.0000000000e+00 -0.0000000000e+00 -1.5998449632e+03 1.5998449632e+03 0.0000000000e+00 0.0000e+00 -1.0000e+00
      -24  2    1    2    0    0 -1.2967942070e+02 +2.6111292375e+02 -4.0659499552e+02 5.0688461434e+02 8.1337634369e+01 0.0000e+00 0.0000e+00
        6  2    1    2  501    0 +3.3374606740e+01 +1.5377272921e+02 -7.4022495481e+01 2.4523301212e+02 1.7291611773e+02 0.0000e+00 0.0000e+00
       24  2    4    4    0    0 -4.1548840406e+01 +4.5059742390e+01 -4.1067692396e+01 1.0907080928e+02 8.0331809109e+01 0.0000e+00 0.0000e+00
        5  1    4    4  501    0 +7.4923447146e+01 +1.0871298682e+02 -3.2954803084e+01 1.3616220284e+02 4.7000000000e+00 0.0000e+00 -1.0000e+00
      -13  1    5    5    0    0 -1.8883599126e+01 +3.9757600322e+01 +1.6476368658e+01 4.6997104416e+01 0.0000000000e+00 0.0000e+00 1.0000e+00
       14  1    5    5    0    0 -2.2665241280e+01 +5.3021420681e+00 -5.7544061055e+01 6.2073704864e+01 0.0000000000e+00 0.0000e+00 -1.0000e+00
       -5  1    1    2    0  502 +9.8657681967e+01 -4.2742231022e+02 -1.3976436080e+02 4.6041213715e+02 4.7000000000e+00 0.0000e+00 1.0000e+00
       13  1    3    3    0    0 -7.1259353598e+01 +9.6013615757e+01 -2.2378190349e+02 2.5372199396e+02 0.0000000000e+00 0.0000e+00 -1.0000e+00
      -14  1    3    3    0    0 -5.8420067105e+01 +1.6509930800e+02 -1.8281309202e+02 2.5316262038e+02 0.0000000000e+00 0.0000e+00 1.0000e+00
       21  1    1    2  504  501 -1.5386412664e+01 -1.2808588036e+01 +2.6284421493e+02 2.6360554422e+02 0.0000000000e+00 0.0000e+00 -1.0000e+00
        2  1    1    2  502    0 +1.3033544660e+01 +2.5345245286e+01 -6.8271118314e+02 6.8330579854e+02 0.0000000000e+00 0.0000e+00 -1.0000e+00
<mgrwt>
<rscale>  4 0.58595076E+03</rscale>
<asrwt>0</asrwt>
<pdfrwt beam="1">  1       21 0.86091717E-01 0.79582271E+03</pdfrwt>
<pdfrwt beam="2">  1        2 0.24612999E+00 0.79582271E+03</pdfrwt>
<totfact> 0.14252167E+02</totfact>
</mgrwt>
</event>
<event>
14      3 +1.4674046e+01 2.63344500e+02 7.54677100e-03 1.10527600e-01
       21 -1    0    0  504  502 +0.0000000000e+00 +0.0000000000e+00 +1.2425122973e+03 1.2425122973e+03 0.0000000000e+00 0.0000e+00 1.0000e+00
       21 -1    0    0  505  503 -0.0000000000e+00 -0.0000000000e+00 -1.2960840031e+02 1.2960840031e+02 0.0000000000e+00 0.0000e+00 -1.0000e+00
        6  2    1    2  501    0 -4.6551899144e+01 +1.8679861398e+02 +6.3622384636e+02 6.8659830218e+02 1.7197570870e+02 0.0000e+00 0.0000e+00
       24  2    3    3    0    0 +3.8182469597e+01 +7.9444279258e+01 +3.4418420687e+02 3.6408612030e+02 7.9540180066e+01 0.0000e+00 0.0000e+00
       -6  2    1    2    0  503 +1.7275181026e+02 -1.2259430242e+02 +3.0074602102e+02 4.0662182809e+02 1.7326451162e+02 0.0000e+00 0.0000e+00
      -24  2    5    5    0    0 +1.8052150192e+02 -7.4516341758e+01 +2.8712973377e+02 3.5583450991e+02 7.7678932698e+01 0.0000e+00 0.0000e+00
        5  1    3    3  501    0 -8.4734368740e+01 +1.0735433472e+02 +2.9203963949e+02 3.2251218188e+02 4.7000000000e+00 0.0000e+00 -1.0000e+00
      -13  1    4    4    0    0 +2.4490690613e+01 +9.1667145793e+01 +3.1972328882e+02 3.3350508386e+02 0.0000000000e+00 0.0000e+00 1.0000e+00
       14  1    4    4    0    0 +1.3691778984e+01 -1.2222866536e+01 +2.4460918053e+01 3.0581036446e+01 0.0000000000e+00 0.0000e+00 -1.0000e+00
       -5  1    5    5    0  503 -7.7696916531e+00 -4.8077960662e+01 +1.3616287253e+01 5.0787318184e+01 4.7000000000e+00 0.0000e+00 1.0000e+00
       13  1    6    6    0    0 +3.1308753062e+01 -3.5985068064e+00 +9.7605516034e+00 3.2991751047e+01 0.0000000000e+00 0.0000e+00 -1.0000e+00
      -14  1    6    6    0    0 +1.4921274886e+02 -7.0917834952e+01 +2.7736918216e+02 3.2284275886e+02 0.0000000000e+00 0.0000e+00 1.0000e+00
       21  1    1    2  504  501 -7.8236428518e+01 -1.3845042907e+00 +1.8351507144e+02 1.9950097003e+02 0.0000000000e+00 0.0000e+00 1.0000e+00
       21  1    1    2  505  502 -4.7963482604e+01 -6.2819807265e+01 -7.5810418780e+00 7.9399597255e+01 0.0000000000e+00 0.0000e+00 1.0000e+00
<mgrwt>
<rscale>  4 0.26313266E+03</rscale>
<asrwt>0</asrwt>
<pdfrwt beam="1">  1       21 0.19115573E+00 0.26334446E+03</pdfrwt>
<pdfrwt beam="2">  1       21 0.19939755E-01 0.26334446E+03</pdfrwt>
<totfact> 0.33546606E+03</totfact>
</mgrwt>
</event>
<event>
13      3 +1.4674046e+01 8.13625500e+02 7.54677100e-03 9.81676700e-02
        2 -1    0    0  504    0 -0.0000000000e+00 +0.0000000000e+00 +2.7222247147e+03 2.7222247147e+03 0.0000000000e+00 0.0000e+00 1.0000e+00
       21 -1    0    0  501  503 +0.0000000000e+00 -0.0000000000e+00 -3.6643680022e+02 3.6643680022e+02 0.0000000000e+00 0.0000e+00 1.0000e+00
      -24  2    1    2    0    0 -5.6043887607e+01 -4.2487594991e+02 +3.2157796589e+02 5.4170444945e+02 7.9817493399e+01 0.0000e+00 0.0000e+00
        6  2    1    2  501    0 -2.3312614539e+02 +1.5998795946e+02 +2.0546303294e+02 3.8758363602e+02 1.6751737274e+02 0.0000e+00 0.0000e+00
       24  2    4    4    0    0 -1.5691928289e+02 +1.7768939404e+02 +1.2794098266e+02 2.7734487261e+02 6.5985613742e+01 0.0000e+00 0.0000e+00
        5  1    4    4  501    0 -7.6206862502e+01 -1.7701434579e+01 +7.7522050288e+01 1.1023876342e+02 4.7000000000e+00 0.0000e+00 -1.0000e+00
      -13  1    5    5    0    0 -1.2956824895e+01 +5.4907300344e+01 +2.2486354753e+01 6.0731598798e+01 0.0000000000e+00 0.0000e+00 1.0000e+00
       14  1    5    5    0    0 -1.4396245799e+02 +1.2278209370e+02 +1.0545462790e+02 2.1661327381e+02 0.0000000000e+00 0.0000e+00 -1.0000e+00
       -5  1    1    2    0  502 +2.4017507295e+02 +2.4630456464e+02 +4.9901050662e+01 3.4765242569e+02 4.7000000000e+00 0.0000e+00 1.0000e+00
       13  1    3    3    0    0 -1.7180221871e+01 -2.0826951852e+02 +2.0469149368e+02 2.9252343488e+02 0.0000000000e+00 0.0000e+00 -1.0000e+00
      -14  1    3    3    0    0 -3.8863665736e+01 -2.1660643140e+02 +1.1688647220e+02 2.4918101457e+02 0.0000000000e+00 0.0000e+00 1.0000e+00
       21  1    1    2  504  503 +5.7300061508e+01 -5.3409906551e+00 +3.4307261340e+01 6.6998592601e+01 0.0000000000e+00 0.0000e+00 1.0000e+00
        2  1    1    2  502    0 -8.3051014599e+00 +2.3924416464e+01 +1.7445386036e+03 1.7447224111e+03 0.0000000000e+00 0.0000e+00 1.0000e+00
<mgrwt>
<rscale>  4 0.64470429E+03</rscale>
<asrwt>0</asrwt>
<pdfrwt beam="2">  1       21 0.56374894E-01 0.81362546E+03</pdfrwt>
<pdfrwt beam="1">  1        2 0.41880379E+00 0.81362546E+03</pdfrwt>
<totfact> 0.88468585E+01</totfact>
</mgrwt>
</event>
<event>
13      2 +1.4674046e+01 1.96901700e+02 7.54677100e-03 1.15277700e-01
       21 -1    0    0  503  502 +0.0000000000e+00 +0.0000000000e+00 +8.1060571914e+02 8.1060571914e+02 0.0000000000e+00 0.0000e+00 -1.0000e+00
       21 -1    0    0  501  503 -0.0000000000e+00 -0.0000000000e+00 -4.7400137134e+01 4.7400137134e+01 0.0000000000e+00 0.0000e+00 1.0000e+00
        6  2    1    2  501    0 -9.2470388065e+01 -1.2153485127e+01 +3.7535193966e+02 4.2386241688e+02 1.7341219669e+02 0.0000e+00 0.0000e+00
       24  2    3    3    0    0 -1.1059958001e+01 +2.7400014082e+01 +9.2432807249e+01 1.2678084069e+02 8.1587218776e+01 0.0000e+00 0.0000e+00
       -6  2    1    2    0  502 +9.2470388065e+01 +1.2153485127e+01 +3.8785364234e+02 4.3414343940e+02 1.7132308141e+02 0.0000e+00 0.0000e+00
      -24  2    5    5    0    0 +3.9719221210e+01 +2.6393919233e+01 +3.4888609207e+02 3.6205972584e+02 8.4210951362e+01 0.0000e+00 0.0000e+00
        5  1    3    3  501    0 -8.1410430064e+01 -3.9553499210e+01 +2.8291913242e+02 2.9708157619e+02 4.7000000000e+00 0.0000e+00 -1.0000e+00
      -13  1    4    4    0    0 -2.6766064525e+01 -1.3046020727e+01 +6.4439349317e+00 3.0465474957e+01 0.0000000000e+00 0.0000e+00 1.0000e+00
       14  1    4    4    0    0 +1.5706106525e+01 +4.0446034809e+01 +8.5988872317e+01 9.6315365733e+01 0.0000000000e+00 0.0000e+00 -1.0000e+00
       -5  1    5    5    0  504 +3.3006832645e+01 -1.9756245996e+01 +3.2528381400e+01 5.0595907479e+01 4.7000000000e+00 0.0000e+00 1.0000e+00
       13  1    6    6    0    0 +3.6416682882e+01 -2.5216889919e+01 +1.8382455596e+02 1.8908604841e+02 0.0000000000e+00 0.0000e+00 -1.0000e+00
      -14  1    6    6    0    0 +3.3025383275e+00 +5.1610809151e+01 +1.6506153611e+02 1.7297367743e+02 0.0000000000e+00 0.0000e+00 1.0000e+00
       21  1    5    5  504  502 +1.9744334210e+01 +5.5158118908e+00 +6.4391688693e+00 2.1487806075e+01 0.0000000000e+00 0.0000e+00 1.0000e+00
<mgrwt>
<rscale>  3 0.19644071E+03</rscale>
<asrwt>0</asrwt>
<pdfrwt beam="1">  1       21 0.12470856E+00 0.19690168E+03</pdfrwt>
<pdfrwt beam="2">  1       21 0.72923294E-02 0.19690168E+03</pdfrwt>
<totfact> 0.67479561E+04</totfact>
</mgrwt>
</event>
<event>
13      3 +1.4674046e+01 3.26850500e+02 7.54677100e-03 1.09670900e-01
       21 -1    0    0  501  503 +0.0000000000e+00 +0.0000000000e+00 +2.9685267943e+02 2.9685267943e+02 0.0000000000e+00 0.0000e+00 -1.0000e+00
       -1 -1    0    0    0  501 -0.0000000000e+00 -0.0000000000e+00 -1.0127338689e+03 1.0127338689e+03 0.0000000000e+00 0.0000e+00 -1.0000e+00
       24  2    1    2    0    0 -5.2710922593e+01 -2.4177872766e+01 -2.8152857044e+02 2.9777606967e+02 7.7776865488e+01 0.0000e+00 0.0000e+00
       -6  2    1    2    0  504 +2.4025961790e+01 +9.6313088391e+00 -6.6262078831e+01 1.8108741071e+02 1.6652921148e+02 0.0000e+00 0.0000e+00
      -24  2    4    4    0    0 +7.3717347004e+00 +3.5977605037e+01 +1.9268204083e+01 8.9933640087e+01 7.9800159111e+01 0.0000e+00 0.0000e+00
        5  1    1    2  502    0 +3.3401239945e+01 -5.0515366541e+01 +7.3367727843e+01 9.5248929524e+01 4.7000000000e+00 0.0000e+00 -1.0000e+00
      -13  1    3    3    0    0 +1.9403061357e+01 -1.4369724942e+01 -6.4596419563e+01 6.8961331232e+01 0.0000000000e+00 0.0000e+00 1.0000e+00
       14  1    3    3    0    0 -7.2113983949e+01 -9.8081478238e+00 -2.1693215087e+02 2.2881473844e+02 0.0000000000e+00 0.0000e+00 -1.0000e+00
       -5  1    4    4    0  504 +1.6654227090e+01 -2.6346296198e+01 -8.5530282914e+01 9.1153770622e+01 4.7000000000e+00 0.0000e+00 1.0000e+00
       13  1    5    5    0    0 +1.2258179305e+01 -2.3447111424e+01 -2.2281192467e+00 2.6551732700e+01 0.0000000000e+00 0.0000e+00 -1.0000e+00
      -14  1    5    5    0    0 -4.8864446050e+00 +5.9424716461e+01 +2.1496323329e+01 6.3381907387e+01 0.0000000000e+00 0.0000e+00 1.0000e+00
       21  1    1    2  504  503 +1.8798862736e+01 +4.0837109233e+01 +1.4307242587e+02 1.4996928277e+02 0.0000000000e+00 0.0000e+00 -1.0000e+00
       -1  1    1    2    0  502 -2.3515141879e+01 +2.4224821235e+01 -5.8453069393e+02 5.8550485566e+02 0.0000000000e+00 0.0000e+00 -1.0000e+00
<mgrwt>
<rscale>  4 0.27814007E+03</rscale>
<asrwt>0</asrwt>
<pdfrwt beam="1">  1       21 0.45669643E-01 0.32685046E+03</pdfrwt>
<pdfrwt beam="2">  1       -1 0.15580521E+00 0.32685046E+03</pdfrwt>
<totfact> 0.13938021E+02</totfact>
</mgrwt>
</event>
<event>
13      2 +1.4674046e+01 2.21687100e+02 7.54677100e-03 1.13277500e-01
       21 -1    0    0  501  502 +0.0000000000e+00 +0.0000000000e+00 +1.7914512026e+02 1.7914512026e+02 0.0000000000e+00 0.0000e+00 1.0000e+00
       21 -1    0    0  504  503 -0.0000000000e+00 -0.0000000000e+00 -7.0106737669e+02 7.0106737669e+02 0.0000000000e+00 0.0000e+00 -1.0000e+00
       -6  2    1    2    0  503 -5.7705353568e+01 +7.9989879218e+01 -5.0292888256e+02 5.4138451514e+02 1.7444610546e+02 0.0000e+00 0.0000e+00
      -24  2    3    3    0    0 -4.4321839798e+01 +1.2033521782e+02 -4.4149334976e+02 4.6652945867e+02 7.9299229489e+01 0.0000e+00 0.0000e+00
        6  2    1    2  501    0 +1.3305936619e+02 -5.8758000075e+01 +5.2973506534e+01 2.3248771763e+02 1.7345618741e+02 0.0000e+00 0.0000e+00
       24  2    5    5    0    0 +7.4344628463e+01 -7.9835098007e+01 -1.9397058269e+01 1.3682553528e+02 8.0275865482e+01 0.0000e+00 0.0000e+00
        5  1    5    5  501    0 +5.8714737724e+01 +2.1077097932e+01 +7.2370564803e+01 9.5662182356e+01 4.7000000000e+00 0.0000e+00 -1.0000e+00
      -13  1    6    6    0    0 +7.8672845623e+01 -7.1529753856e+01 +9.2071053285e+00 1.0672719013e+02 0.0000000000e+00 0.0000e+00 1.0000e+00
       14  1    6    6    0    0 -4.3282171593e+00 -8.3053441508e+00 -2.8604163598e+01 3.0098345143e+01 0.0000000000e+00 0.0000e+00 -1.0000e+00
       -5  1    3    3    0  503 -1.3383513770e+01 -4.0345338603e+01 -6.1435532800e+01 7.4855056464e+01 4.7000000000e+00 0.0000e+00 1.0000e+00
       13  1    4    4    0    0 +1.6732028800e+01 +5.1653777201e+01 -1.1209153229e+02 1.2454952869e+02 0.0000000000e+00 0.0000e+00 -1.0000e+00
      -14  1    4    4    0    0 -6.1053868598e+01 +6.8681440621e+01 -3.2940181747e+02 3.4197992998e+02 0.0000000000e+00 0.0000e+00 1.0000e+00
       21  1    1    2  504  502 -7.5354012619e+01 -2.1231879143e+01 -7.1966880414e+01 1.0634026418e+02 0.0000000000e+00 0.0000e+00 1.0000e+00
<mgrwt>
<rscale>  3 0.22149228E+03</rscale>
<asrwt>0</asrwt>
<pdfrwt beam="1">  1       21 0.27560788E-01 0.22168706E+03</pdfrwt>
<pdfrwt beam="2">  1       21 0.10785652E+00 0.22168706E+03</pdfrwt>
<totfact> 0.84290012E+03</totfact>
</mgrwt>
</event>
<event>
13      2 +1.4674046e+01 2.63946300e+02 7.54677100e-03 1.10538800e-01
       21 -1    0    0  501  502 +0.0000000000e+00 +0.0000000000e+00 +2.9375594269e+02 2.9375594269e+02 0.0000000000e+00 0.0000e+00 -1.0000e+00
       21 -1    0    0  504  503 -0.0000000000e+00 -0.0000000000e+00 -2.5613578511e+02 2.5613578511e+02 0.0000000000e+00 0.0000e+00 1.0000e+00
       -6  2    1    2    0  503 -7.4543016827e+01 -1.7734614357e+02 +2.3713264176e+01 2.5988795025e+02 1.7312166759e+02 0.0000e+00 0.0000e+00
      -24  2    3    3    0    0 -1.9213794711e+01 -6.1365944630e+01 -4.6717915065e+01 1.1327495500e+02 8.0707513743e+01 0.0000e+00 0.0000e+00
        6  2    1    2  501    0 +6.2364439735e+01 +1.9730149140e+02 +1.6934309942e+01 2.6643051096e+02 1.6697677822e+02 0.0000e+00 0.0000e+00
       24  2    5    5    0    0 -8.8707546368e+00 +7.3630495735e+01 -3.2359044676e+01 1.1536465481e+02 8.2229894907e+01 0.0000e+00 0.0000e+00
        5  1    5    5  501    0 +7.1235194372e+01 +1.2367099566e+02 +4.9293354618e+01 1.5106585615e+02 4.7000000000e+00 0.0000e+00 -1.0000e+00
      -13  1    6    6    0    0 +2.1814948573e+01 +3.1982450142e+01 -4.7674359130e+01 6.1413464458e+01 0.0000000000e+00 0.0000e+00 1.0000e+00
       14  1    6    6    0    0 -3.0685703210e+01 +4.1648045593e+01 +1.5315314454e+01 5.3951190349e+01 0.0000000000e+00 0.0000e+00 -1.0000e+00
       -5  1    3    3    0  503 -5.5329222116e+01 -1.1598019894e+02 +7.0431179241e+01 1.4661299525e+02 4.7000000000e+00 0.0000e+00 1.0000e+00
       13  1    4    4    0    0 +3.6798633909e+00 +1.9074763488e+01 -1.1074125359e+01 2.2361221997e+01 0.0000000000e+00 0.0000e+00 -1.0000e+00
      -14  1    4    4    0    0 -2.2893658102e+01 -8.0440708118e+01 -3.5643789705e+01 9.0913733003e+01 0.0000000000e+00 0.0000e+00 1.0000e+00
       21  1    1    2  504  502 +1.2178577092e+01 -1.9955347824e+01 -3.0274165397e+00 2.3573266589e+01 0.0000000000e+00 0.0000e+00 -1.0000e+00
<mgrwt>
<rscale>  3 0.26294339E+03</rscale>
<asrwt>0</asrwt>
<pdfrwt beam="1">  1       21 0.45193222E-01 0.26394635E+03</pdfrwt>
<pdfrwt beam="2">  1       21 0.39405506E-01 0.26394635E+03</pdfrwt>
<totfact> 0.28155957E+04</totfact>
</mgrwt>
</event>
<event>
14      3 +1.4674046e+01 2.99873200e+02 7.54677100e-03 1.08579400e-01
       21 -1    0    0  504  502 +0.0000000000e+00 +0.0000000000e+00 +1.0827771741e+03 1.0827771741e+03 0.0000000000e+00 0.0000e+00 -1.0000e+00
       21 -1    0    0  502  503 -0.0000000000e+00 -0.0000000000e+00 -1.4225841954e+02 1.4225841954e+02 0.0000000000e+00 0.0000e+00 1.0000e+00
       -6  2    1    2    0  505 -3.2990822797e+01 +1.9437476004e+02 +2.5533090061e+02 3.6606844294e+02 1.7303841880e+02 0.0000e+00 0.0000e+00
      -24  2    3    3    0    0 -4.3916288597e+01 +8.9595146370e+01 +5.4879753938e+01 1.3957145522e+02 8.0699895063e+01 0.0000e+00 0.0000e+00
        6  2    1    2  504    0 +1.0948393425e+02 -2.5631372514e+02 +6.8779612776e+02 7.6050683085e+02 1.6620369687e+02 0.0000e+00 0.0000e+00
       24  2    5    5    0    0 +4.6860989834e+01 -2.2987858124e+02 +5.8831527534e+02 6.3684405686e+02 6.6448288732e+01 0.0000e+00 0.0000e+00
        5  1    5    5  501    0 +4.3441318232e+01 -4.3056230548e+00 +5.4456357055e+01 6.9951921656e+01 4.7000000000e+00 0.0000e+00 -1.0000e+00
      -13  1    6    6    0    0 +4.0932868593e+01 -6.5125254001e+01 +1.5049289289e+02 1.6901156543e+02 0.0000000000e+00 0.0000e+00 1.0000e+00
       14  1    6    6    0    0 +5.9281212412e+00 -1.6475332724e+02 +4.3782238245e+02 4.6783249143e+02 0.0000000000e+00 0.0000e+00 -1.0000e+00
       -5  1    3    3    0  505 +1.0925465799e+01 +1.0477961367e+02 +2.0045114667e+02 2.2649698772e+02 4.7000000000e+00 0.0000e+00 1.0000e+00
       13  1    4    4    0    0 -2.9996046753e+01 +6.1326635067e+01 +7.5597064921e+01 1.0186086203e+02 0.0000000000e+00 0.0000e+00 -1.0000e+00
      -14  1    4    4    0    0 -1.3920241843e+01 +2.8268511303e+01 -2.0717310983e+01 3.7710593188e+01 0.0000000000e+00 0.0000e+00 1.0000e+00
       21  1    5    5  504  501 +1.9181626184e+01 -2.2129520839e+01 +4.5024495369e+01 5.3710852338e+01 0.0000000000e+00 0.0000e+00 1.0000e+00
       21  1    1    2  505  503 -7.6493111453e+01 +6.1938965101e+01 -2.6082737959e+00 9.8460319874e+01 0.0000000000e+00 0.0000e+00 1.0000e+00
<mgrwt>
<rscale>  4 0.29889566E+03</rscale>
<asrwt>0</asrwt>
<pdfrwt beam="1">  1       21 0.16658110E+00 0.29987325E+03</pdfrwt>
<pdfrwt beam="2">  1       21 0.21885911E-01 0.29987325E+03</pdfrwt>
<totfact> 0.40704249E+03</totfact>
</mgrwt>
</event>
<event>
13      2 +1.4674046e+01 1.78419500e+02 7.54677100e-03 1.16953200e-01
       -2 -1    0    0    0  501 -0.0000000000e+00 +0.0000000000e+00 +1.2827293653e+02 1.2827293653e+02 0.0000000000e+00 0.0000e+00 -1.0000e+00
       21 -1    0    0  502  503 +0.0000000000e+00 -0.0000000000e+00 -5.5325894249e+02 5.5325894249e+02 0.0000000000e+00 0.0000e+00 -1.0000e+00
        6  2    1    2  502    0 +9.3615825890e+00 +3.3571229566e+01 -3.5162630429e+02 3.9346854796e+02 1.7309469572e+02 0.0000e+00 0.0000e+00
       24  2    3    3    0    0 -9.1795579157e+00 -2.0820064930e+01 -3.1022352117e+02 3.2248638641e+02 8.5094635264e+01 0.0000e+00 0.0000e+00
       -6  2    1    2    0  501 +4.3141244612e+01 -5.4649238065e+01 -1.1320485893e+02 2.1886458928e+02 1.7389267422e+02 0.0000e+00 0.0000e+00
      -24  2    5    5    0    0 -2.4702338139e+01 +2.4449005420e+00 -1.3914244558e+01 8.5660953875e+01 8.0796099961e+01 0.0000e+00 0.0000e+00
        5  1    3    3  502    0 +1.8541140505e+01 +5.4391294496e+01 -4.1402783121e+01 7.0982161550e+01 4.7000000000e+00 0.0000e+00 -1.0000e+00
      -13  1    4    4    0    0 +1.4983822400e+01 +5.9902335306e+00 -7.8113581919e+00 1.7928054782e+01 0.0000000000e+00 0.0000e+00 1.0000e+00
       14  1    4    4    0    0 -2.4163380316e+01 -2.6810298461e+01 -3.0241216297e+02 3.0455833163e+02 0.0000000000e+00 0.0000e+00 -1.0000e+00
       -5  1    5    5    0  501 +6.7843582751e+01 -5.7094138607e+01 -9.9290614370e+01 1.3320363541e+02 4.7000000000e+00 0.0000e+00 1.0000e+00
       13  1    6    6    0    0 -4.1490127243e+00 -2.8697083251e+01 +2.0011495688e+01 3.5230623801e+01 0.0000000000e+00 0.0000e+00 -1.0000e+00
      -14  1    6    6    0    0 -2.0553325415e+01 +3.1141983793e+01 -3.3925740246e+01 5.0430330075e+01 0.0000000000e+00 0.0000e+00 1.0000e+00
       -2  1    1    2    0  503 -5.2502827201e+01 +2.1078008499e+01 +3.9845157255e+01 6.9198741774e+01 0.0000000000e+00 0.0000e+00 -1.0000e+00
<mgrwt>
<rscale>  3 0.17822474E+03</rscale>
<asrwt>0</asrwt>
<pdfrwt beam="2">  1       21 0.85116761E-01 0.17841947E+03</pdfrwt>
<pdfrwt beam="1">  1       -2 0.19734298E-01 0.17841947E+03</pdfrwt>
<totfact> 0.20529035E+03</totfact>
</mgrwt>
</event>
<event>
12      2 +1.4674046e+01 2.47202700e+02 7.54677100e-03 1.11508600e-01
        4 -1    0    0  502    0 +0.0000000000e+00 +0.0000000000e+00 +4.0585540134e+01 4.0585540134e+01 0.0000000000e+00 0.0000e+00 -1.0000e+00
       -4 -1    0    0    0  501 -0.0000000000e+00 -0.0000000000e+00 -1.9762731557e+03 1.9762731557e+03 0.0000000000e+00 0.0000e+00 1.0000e+00
       24  2    1    2    0    0 +3.9308258953e-01 +2.9700892082e+00 -1.1026226161e+02 1.3618995629e+02 7.9880923352e+01 0.0000e+00 0.0000e+00
       -6  2    1    2    0  503 -1.3677333657e+02 +2.8098781825e+01 -5.9182450020e+02 6.3318502672e+02 1.7655183911e+02 0.0000e+00 0.0000e+00
      -24  2    4    4    0    0 -9.7409613255e+01 +3.1438265933e+01 -1.9593634360e+02 2.3530291176e+02 8.0618932157e+01 0.0000e+00 0.0000e+00
        5  1    1    2  502    0 +1.3131337216e+02 -6.2774577894e+01 -8.3597153470e+02 8.4856016060e+02 4.7000000000e+00 0.0000e+00 -1.0000e+00
      -13  1    3    3    0    0 -1.3976999820e+01 -3.5857352463e+01 -5.0699781141e+01 6.3651976068e+01 0.0000000000e+00 0.0000e+00 1.0000e+00
       14  1    3    3    0    0 +1.4370082410e+01 +3.8827441672e+01 -5.9562480469e+01 7.2537980223e+01 0.0000000000e+00 0.0000e+00 -1.0000e+00
       -5  1    4    4    0  503 -3.9363723315e+01 -3.3394841080e+00 -3.9588815660e+02 3.9788211496e+02 4.7000000000e+00 0.0000e+00 1.0000e+00
       13  1    5    5    0    0 -5.3560070906e+01 +4.8248287027e+01 -1.6214621306e+02 1.7744850748e+02 0.0000000000e+00 0.0000e+00 -1.0000e+00
      -14  1    5    5    0    0 -4.3849542349e+01 -1.6810021094e+01 -3.3790130539e+01 5.7854404286e+01 0.0000000000e+00 0.0000e+00 1.0000e+00
       21  1    1    2  503  501 +5.0668818240e+00 +3.1705706860e+01 -3.9762931908e+02 3.9892355224e+02 0.0000000000e+00 0.0000e+00 -1.0000e+00
<mgrwt>
<rscale>  3 0.24720267E+03</rscale>
<asrwt>0</asrwt>
<pdfrwt beam="1">  1        4 0.62439319E-02 0.24720267E+03</pdfrwt>
<pdfrwt beam="2">  1       -4 0.30404190E+00 0.24720267E+03</pdfrwt>
<totfact> 0.10444548E+01</totfact>
</mgrwt>
</event>
<event>
14      3 +1.4674046e+01 2.54411200e+02 7.54677100e-03 1.12465300e-01
       21 -1    0    0  503  502 +0.0000000000e+00 +0.0000000000e+00 +1.5282428252e+03 1.5282428252e+03 0.0000000000e+00 0.0000e+00 -1.0000e+00
       21 -1    0    0  504  503 -0.0000000000e+00 -0.0000000000e+00 -2.8419164985e+02 2.8419164985e+02 0.0000000000e+00 0.0000e+00 1.0000e+00
        6  2    1    2  501    0 +2.8132350999e+01 +3.4377353723e+01 +1.0844262221e+03 1.0989918927e+03 1.7271281778e+02 0.0000e+00 0.0000e+00
       24  2    3    3    0    0 +9.0790324320e+00 +1.1853562795e+01 +2.3037353133e+02 2.4441688796e+02 8.0278984829e+01 0.0000e+00 0.0000e+00
       -6  2    1    2    0  502 +1.5574032703e+02 +8.1870598822e+00 +2.4941920343e+02 3.4132452767e+02 1.7311966016e+02 0.0000e+00 0.0000e+00
      -24  2    5    5    0    0 +1.2857134811e+02 -5.2888540616e+01 +1.4934203370e+02 2.2088403492e+02 8.4610428248e+01 0.0000e+00 0.0000e+00
        5  1    3    3  501    0 +1.9053318567e+01 +2.2523790928e+01 +8.5405269076e+02 8.5457500473e+02 4.7000000000e+00 0.0000e+00 -1.0000e+00
      -13  1    4    4    0    0 -3.5722891673e+01 +2.2364692012e+00 +9.7232624009e+01 1.0361134086e+02 0.0000000000e+00 0.0000e+00 1.0000e+00
       14  1    4    4    0    0 +4.4801924105e+01 +9.6170935937e+00 +1.3314090732e+02 1.4080554710e+02 0.0000000000e+00 0.0000e+00 -1.0000e+00
       -5  1    5    5    0  502 +2.7168978912e+01 +6.1075600499e+01 +1.0007716973e+02 1.2044049275e+02 4.7000000000e+00 0.0000e+00 1.0000e+00
       13  1    6    6    0    0 +1.3663861462e+02 -6.0055815812e+01 +1.4767716570e+02 2.0996513350e+02 0.0000000000e+00 0.0000e+00 -1.0000e+00
      -14  1    6    6    0    0 -8.0672665087e+00 +7.1672751952e+00 +1.6648680009e+00 1.0918901415e+01 0.0000000000e+00 0.0000e+00 1.0000e+00
       21  1    1    2  504  505 +2.0139654899e+01 -6.3394973046e-01 -1.5310987813e+02 1.5443005657e+02 0.0000000000e+00 0.0000e+00 1.0000e+00
       21  1    1    2  505  501 -2.0401233292e+02 -4.1930463875e+01 +6.3315627972e+01 2.1768799813e+02 0.0000000000e+00 0.0000e+00 -1.0000e+00
<mgrwt>
<rscale>  4 0.23284478E+03</rscale>
<asrwt>0</asrwt>
<pdfrwt beam="1">  1       21 0.23511428E+00 0.25441120E+03</pdfrwt>
<pdfrwt beam="2">  1       21 0.43721793E-01 0.25441120E+03</pdfrwt>
<totfact> 0.38136985E+02</totfact>
</mgrwt>
</event>
<event>
12      1 +1.4674046e+01 1.98550400e+02 7.54677100e-03 1.15145000e-01
       21 -1    0    0  501  502 +0.0000000000e+00 +0.0000000000e+00 +8.3971808433e+02 8.3971808433e+02 0.0000000000e+00 0.0000e+00 -1.0000e+00
       21 -1    0    0  502  503 -0.0000000000e+00 -0.0000000000e+00 -8.9410972230e+01 8.9410972230e+01 0.0000000000e+00 0.0000e+00 -1.0000e+00
       -6  2    1    2    0  503 -5.2237788684e+01 +8.1793772271e+01 +5.1894444068e+01 2.0304193441e+02 1.7062821002e+02 0.0000e+00 0.0000e+00
      -24  2    3    3    0    0 -2.5571206381e+01 +3.3831459705e+01 -3.6311524553e+01 9.9052161165e+01 8.1819004849e+01 0.0000e+00 0.0000e+00
        6  2    1    2  501    0 +5.2237788684e+01 -8.1793772271e+01 +6.9841266803e+02 7.2608712215e+02 1.7321445189e+02 0.0000e+00 0.0000e+00
       24  2    5    5    0    0 +3.7130994549e+01 +2.3531704040e+01 +3.2861899569e+02 3.4126102988e+02 8.0846733620e+01 0.0000e+00 0.0000e+00
        5  1    5    5  501    0 +1.5106794135e+01 -1.0532547631e+02 +3.6979367234e+02 3.8482609227e+02 4.7000000000e+00 0.0000e+00 -1.0000e+00
      -13  1    6    6    0    0 -1.4811589557e+01 +3.5675529251e+01 +1.3228591301e+02 1.3781033834e+02 0.0000000000e+00 0.0000e+00 1.0000e+00
       14  1    6    6    0    0 +5.1942584106e+01 -1.2143825211e+01 +1.9633308268e+02 2.0345069154e+02 0.0000000000e+00 0.0000e+00 -1.0000e+00
       -5  1    3    3    0  503 -2.6666582303e+01 +4.7962312566e+01 +8.8205968621e+01 1.0398977324e+02 4.7000000000e+00 0.0000e+00 1.0000e+00
       13  1    4    4    0    0 -1.4411555188e+00 -1.6857434664e+01 -3.9347528250e+01 4.2830806811e+01 0.0000000000e+00 0.0000e+00 -1.0000e+00
      -14  1    4    4    0    0 -2.4130050862e+01 +5.0688894369e+01 +3.0360036967e+00 5.6221354354e+01 0.0000000000e+00 0.0000e+00 1.0000e+00
<mgrwt>
<rscale>  2 0.19798493E+03</rscale>
<asrwt>0</asrwt>
<pdfrwt beam="1">  1       21 0.12918739E+00 0.19855038E+03</pdfrwt>
<pdfrwt beam="2">  1       21 0.13755535E-01 0.19855038E+03</pdfrwt>
<totfact> 0.20081538E+04</totfact>
</mgrwt>
</event>
<event>
12      1 +1.4674046e+01 2.31514500e+02 7.54677100e-03 1.12616300e-01
       21 -1    0    0  503  502 +0.0000000000e+00 +0.0000000000e+00 +6.3571763587e+02 6.3571763587e+02 0.0000000000e+00 0.0000e+00 -1.0000e+00
       21 -1    0    0  501  503 -0.0000000000e+00 -0.0000000000e+00 -9.6057952562e+01 9.6057952562e+01 0.0000000000e+00 0.0000e+00 -1.0000e+00
        6  2    1    2  501    0 +1.4816710220e+02 +3.7151662425e+01 +1.3717109659e+02 2.6910009523e+02 1.7396900678e+02 0.0000e+00 0.0000e+00
       24  2    3    3    0    0 +7.1996049405e+01 -3.0301638166e+01 +2.2181806387e+01 1.1548823402e+02 8.2121125522e+01 0.0000e+00 0.0000e+00
       -6  2    1    2    0  502 -1.4816710220e+02 -3.7151662425e+01 +4.0248858672e+02 4.6267549320e+02 1.6952230936e+02 0.0000e+00 0.0000e+00
      -24  2    5    5    0    0 -1.7362453632e+02 -2.3556822456e+01 +3.7506057672e+02 4.2258451718e+02 8.4893076599e+01 0.0000e+00 0.0000e+00
        5  1    3    3  501    0 +7.6171052794e+01 +6.7453300591e+01 +1.1498929020e+02 1.5361186121e+02 4.7000000000e+00 0.0000e+00 -1.0000e+00
      -13  1    4    4    0    0 -6.8004650360e+00 +9.8400230938e+00 -1.5316996993e+01 1.9434062264e+01 0.0000000000e+00 0.0000e+00 1.0000e+00
       14  1    4    4    0    0 +7.8796514441e+01 -4.0141661260e+01 +3.7498803381e+01 9.6054171756e+01 0.0000000000e+00 0.0000e+00 -1.0000e+00
       -5  1    5    5    0  502 +2.5457434118e+01 -1.3594839969e+01 +2.7428010001e+01 4.0090976020e+01 4.7000000000e+00 0.0000e+00 1.0000e+00
       13  1    6    6    0    0 -1.0532749091e+01 -1.0738416161e+01 +1.9284570824e+00 1.5164805695e+01 0.0000000000e+00 0.0000e+00 -1.0000e+00
      -14  1    6    6    0    0 -1.6309178723e+02 -1.2818406296e+01 +3.7313211964e+02 4.0741971148e+02 0.0000000000e+00 0.0000e+00 1.0000e+00
<mgrwt>
<rscale>  2 0.23067933E+03</rscale>
<asrwt>0</asrwt>
<pdfrwt beam="1">  1       21 0.97802711E-01 0.23151447E+03</pdfrwt>
<pdfrwt beam="2">  1       21 0.14778147E-01 0.23151447E+03</pdfrwt>
<totfact> 0.34166015E+04</totfact>
</mgrwt>
</event>
<event>
12      1 +1.4674046e+01 2.19800600e+02 7.54677100e-03 1.13406900e-01
       21 -1    0    0  501  502 +0.0000000000e+00 +0.0000000000e+00 +3.9419303441e+01 3.9419303441e+01 0.0000000000e+00 0.0000e+00 1.0000e+00
       21 -1    0    0  502  503 -0.0000000000e+00 -0.0000000000e+00 -1.3133415361e+03 1.3133415361e+03 0.0000000000e+00 0.0000e+00 -1.0000e+00
       -6  2    1    2    0  503 +1.5689889564e+01 +1.3452583066e+02 -8.1261644976e+02 8.4176639211e+02 1.7286350892e+02 0.0000e+00 0.0000e+00
      -24  2    3    3    0    0 -3.9567840756e+01 +1.2384267489e+02 -6.9027451965e+02 7.0701779494e+02 8.0576843645e+01 0.0000e+00 0.0000e+00
        6  2    1    2  501    0 -1.5689889564e+01 -1.3452583066e+02 -4.6130578288e+02 5.1099444741e+02 1.7311536101e+02 0.0000e+00 0.0000e+00
       24  2    5    5    0    0 -4.0731418878e+01 -1.3817051166e+02 -4.5582644954e+02 4.8467952800e+02 7.9914666858e+01 0.0000e+00 0.0000e+00
        5  1    5    5  501    0 +2.5041529314e+01 +3.6446809962e+00 -5.4793333324e+00 2.6314919413e+01 4.7000000000e+00 0.0000e+00 -1.0000e+00
      -13  1    6    6    0    0 -3.7890591766e+00 -6.5759494867e+01 -1.0042066681e+02 1.2009570541e+02 0.0000000000e+00 0.0000e+00 1.0000e+00
       14  1    6    6    0    0 -3.6942359701e+01 -7.2411016790e+01 -3.5540578273e+02 3.6458382259e+02 0.0000000000e+00 0.0000e+00 -1.0000e+00
       -5  1    3    3    0  503 +5.5257730320e+01 +1.0683155770e+01 -1.2234193011e+02 1.3474859718e+02 4.7000000000e+00 0.0000e+00 1.0000e+00
       13  1    4    4    0    0 -2.4237688602e+01 +6.1532494000e+01 -1.6379688809e+02 1.7664408825e+02 0.0000000000e+00 0.0000e+00 -1.0000e+00
      -14  1    4    4    0    0 -1.5330152154e+01 +6.2310180891e+01 -5.2647763157e+02 5.3037370669e+02 0.0000000000e+00 0.0000e+00 1.0000e+00
<mgrwt>
<rscale>  2 0.21975100E+03</rscale>
<asrwt>0</asrwt>
<pdfrwt beam="1">  1       21 0.60645085E-02 0.21980059E+03</pdfrwt>
<pdfrwt beam="2">  1       21 0.20205254E+00 0.21980059E+03</pdfrwt>
<totfact> 0.24735657E+04</totfact>
</mgrwt>
</event>
<event>
14      3 +1.4674046e+01 2.09268700e+02 7.54677100e-03 1.14262900e-01
       21 -1    0    0  504  502 +0.0000000000e+00 +0.0000000000e+00 +5.9783421730e+02 5.9783421730e+02 0.0000000000e+00 0.0000e+00 -1.0000e+00
       21 -1    0    0  502  503 -0.0000000000e+00 -0.0000000000e+00 -1.4383951993e+02 1.4383951993e+02 0.0000000000e+00 0.0000e+00 -1.0000e+00
       -6  2    1    2    0  505 +1.0677926977e+02 -6.5007035997e+01 +1.4959278439e+02 2.6070059403e+02 1.7308688975e+02 0.0000e+00 0.0000e+00
      -24  2    3    3    0    0 +1.1259263158e+02 -4.2635547922e+01 +1.7434424059e+02 2.2650990467e+02 8.0099513447e+01 0.0000e+00 0.0000e+00
        6  2    1    2  501    0 -1.0035779153e+02 +6.0107102302e+01 +5.6764157967e+01 2.1415347232e+02 1.7016165845e+02 0.0000e+00 0.0000e+00
       24  2    5    5    0    0 -1.1327762762e+02 +8.7644326110e+01 +1.7764144363e+01 1.6447136366e+02 7.8879121574e+01 0.0000e+00 0.0000e+00
        5  1    5    5  501    0 +1.2919836088e+01 -2.7537223808e+01 +3.9000013605e+01 4.9682108658e+01 4.7000000000e+00 0.0000e+00 -1.0000e+00
      -13  1    6    6    0    0 -1.2195941519e+01 +2.0676510597e+01 -2.6162872166e+01 3.5507111400e+01 0.0000000000e+00 0.0000e+00 1.0000e+00
       14  1    6    6    0    0 -1.0108168610e+02 +6.6967815513e+01 +4.3927016528e+01 1.2896425226e+02 0.0000000000e+00 0.0000e+00 -1.0000e+00
       -5  1    3    3    0  505 -5.8133618171e+00 -2.2371488076e+01 -2.4751456202e+01 3.4190689353e+01 4.7000000000e+00 0.0000e+00 1.0000e+00
       13  1    4    4    0    0 +6.7356931370e+01 -4.3163271135e+01 +5.0362504793e+01 9.4532566175e+01 0.0000000000e+00 0.0000e+00 -1.0000e+00
      -14  1    4    4    0    0 +4.5235700212e+01 +5.2772321289e-01 +1.2398173580e+02 1.3197733850e+02 0.0000000000e+00 0.0000e+00 1.0000e+00
       21  1    1    2  504  501 -5.3983279584e+00 +3.3912553880e+01 +2.3063281205e+02 2.3317525008e+02 0.0000000000e+00 0.0000e+00 -1.0000e+00
       21  1    1    2  505  503 -1.0231502750e+00 -2.9012620185e+01 +1.7004942959e+01 3.3644420808e+01 0.0000000000e+00 0.0000e+00 1.0000e+00
<mgrwt>
<rscale>  4 0.20866282E+03</rscale>
<asrwt>0</asrwt>
<pdfrwt beam="1">  1       21 0.91974494E-01 0.20926868E+03</pdfrwt>
<pdfrwt beam="2">  1       21 0.22129157E-01 0.20926868E+03</pdfrwt>
<totfact> 0.18877792E+04</totfact>
</mgrwt>
</event>
<event>
13      2 +1.4674046e+01 1.90630800e+02 7.54677100e-03 1.15804900e-01
       21 -1    0    0  501  502 +0.0000000000e+00 +0.0000000000e+00 +5.3394545241e+01 5.3394545241e+01 0.0000000000e+00 0.0000e+00 -1.0000e+00
       21 -1    0    0  502  503 -0.0000000000e+00 -0.0000000000e+00 -1.0621361470e+03 1.0621361470e+03 0.0000000000e+00 0.0000e+00 -1.0000e+00
       -6  2    1    2    0  504 -6.9895014458e+01 +2.2803734212e+01 -2.1404848760e+02 2.8527656407e+02 1.7366818830e+02 0.0000e+00 0.0000e+00
      -24  2    3    3    0    0 -5.0505839107e+01 +7.3708063020e+01 -8.5807055708e+01 1.4586657281e+02 7.7009661181e+01 0.0000e+00 0.0000e+00
        6  2    1    2  501    0 +9.5398561906e+01 +6.1374542862e+00 -5.9736884318e+02 6.2919470600e+02 1.7291006129e+02 0.0000e+00 0.0000e+00
       24  2    5    5    0    0 -1.5407810053e+01 -1.3880912513e+01 -2.2099934801e+02 2.3631447746e+02 8.1078604435e+01 0.0000e+00 0.0000e+00
        5  1    5    5  501    0 +1.1080637196e+02 +2.0018366800e+01 -3.7636949517e+02 3.9288022854e+02 4.7000000000e+00 0.0000e+00 -1.0000e+00
      -13  1    6    6    0    0 -2.7379852411e+01 +2.2308016390e+01 -5.0616180912e+01 6.1719540532e+01 0.0000000000e+00 0.0000e+00 1.0000e+00
       14  1    6    6    0    0 +1.1972042358e+01 -3.6188928903e+01 -1.7038316709e+02 1.7459493693e+02 0.0000000000e+00 0.0000e+00 -1.0000e+00
       -5  1    3    3    0  504 -1.9389175351e+01 -5.0904328808e+01 -1.2824143189e+02 1.3940999127e+02 4.7000000000e+00 0.0000e+00 1.0000e+00
       13  1    4    4    0    0 -5.8317641429e+00 +3.8544507087e+01 +4.4080542207e+00 3.9231612784e+01 0.0000000000e+00 0.0000e+00 -1.0000e+00
      -14  1    4    4    0    0 -4.4674074964e+01 +3.5163555932e+01 -9.0215109929e+01 1.0663496002e+02 0.0000000000e+00 0.0000e+00 1.0000e+00
       21  1    1    2  504  503 -2.5503547448e+01 -2.8941188498e+01 -1.9732427097e+02 2.0105942216e+02 0.0000000000e+00 0.0000e+00 -1.0000e+00
<mgrwt>
<rscale>  3 0.19045792E+03</rscale>
<asrwt>0</asrwt>
<pdfrwt beam="1">  1       21 0.82145458E-02 0.19063076E+03</pdfrwt>
<pdfrwt beam="2">  1       21 0.16340555E+00 0.19063076E+03</pdfrwt>
<totfact> 0.27281344E+04</totfact>
</mgrwt>
</event>
<event>
13      2 +1.4674046e+01 2.39221900e+02 7.54677100e-03 1.12040200e-01
       21 -1    0    0  502  503 +0.0000000000e+00 +0.0000000000e+00 +3.0900019527e+02 3.0900019527e+02 0.0000000000e+00 0.0000e+00 -1.0000e+00
        2 -1    0    0  501    0 -0.0000000000e+00 -0.0000000000e+00 -9.5676243857e+02 9.5676243857e+02 0.0000000000e+00 0.0000e+00 1.0000e+00
        6  2    1    2  501    0 -1.8850679542e+01 +1.6579671297e+02 +1.9994643453e+00 2.4121780904e+02 1.7417845846e+02 0.0000e+00 0.0000e+00
       24  2    3    3    0    0 -6.7321901489e+01 +1.0620807559e+02 +4.0662681356e+01 1.5509464485e+02 8.1169584603e+01 0.0000e+00 0.0000e+00
       -6  2    1    2    0  503 -1.2632133686e+01 -1.6282491807e+02 +1.1121536091e+02 2.6291099023e+02 1.7344107800e+02 0.0000e+00 0.0000e+00
      -24  2    5    5    0    0 +2.7425900656e+01 -8.5349718352e+01 +1.2637222875e+02 1.7426070355e+02 7.9750223534e+01 0.0000e+00 0.0000e+00
        5  1    3    3  501    0 +4.8471221947e+01 +5.9588637371e+01 -3.8663217010e+01 8.6123164191e+01 4.7000000000e+00 0.0000e+00 -1.0000e+00
      -13  1    4    4    0    0 -1.4237773794e+01 +8.4970834853e+01 +2.1942523819e+00 8.6183361050e+01 0.0000000000e+00 0.0000e+00 1.0000e+00
       14  1    4    4    0    0 -5.3084127695e+01 +2.1237240742e+01 +3.8468428974e+01 6.8911283801e+01 0.0000000000e+00 0.0000e+00 -1.0000e+00
       -5  1    5    5    0  503 -4.0058034343e+01 -7.7475199713e+01 -1.5156867838e+01 8.8650286681e+01 4.7000000000e+00 0.0000e+00 1.0000e+00
       13  1    6    6    0    0 +3.1479064193e+01 -9.8314061357e+01 +1.2237691829e+02 1.6010214325e+02 0.0000000000e+00 0.0000e+00 -1.0000e+00
      -14  1    6    6    0    0 -4.0531635367e+00 +1.2964343005e+01 +3.9953104617e+00 1.4158560304e+01 0.0000000000e+00 0.0000e+00 1.0000e+00
        2  1    1    2  502    0 +3.1482813229e+01 -2.9717949007e+00 -7.6097706855e+02 7.6163383457e+02 0.0000000000e+00 0.0000e+00 1.0000e+00
<mgrwt>
<rscale>  3 0.23908774E+03</rscale>
<asrwt>0</asrwt>
<pdfrwt beam="1">  1       21 0.47538491E-01 0.23922194E+03</pdfrwt>
<pdfrwt beam="2">  1        2 0.14719422E+00 0.23922194E+03</pdfrwt>
<totfact> 0.14673249E+03</totfact>
</mgrwt>
</event>
<event>
13      2 +1.4674046e+01 2.52756900e+02 7.54677100e-03 1.11158400e-01
       21 -1    0    0  501  502 +0.0000000000e+00 +0.0000000000e+00 +4.2153607045e+02 4.2153607045e+02 0.0000000000e+00 0.0000e+00 1.0000e+00
       21 -1    0    0  502  503 -0.0000000000e+00 -0.0000000000e+00 -6.5178854362e+02 6.5178854362e+02 0.0000000000e+00 0.0000e+00 -1.0000e+00
       -6  2    1    2    0  504 -1.7285358856e+02 -8.4704835056e+01 +3.2595419145e+02 4.1613648669e+02 1.7282988304e+02 0.0000e+00 0.0000e+00
      -24  2    3    3    0    0 -7.5419790993e+01 -2.2940439928e+01 +2.5264925297e+02 2.7937432299e+02 8.9464845953e+01 0.0000e+00 0.0000e+00
        6  2    1    2  501    0 +1.2777591451e+02 +5.5174949727e+01 -2.0558928772e+02 3.0245364104e+02 1.7274342345e+02 0.0000e+00 0.0000e+00
       24  2    5    5    0    0 +7.1360212410e+01 +2.8875856297e+01 -2.8157213212e+01 1.1436162945e+02 7.9747467932e+01 0.0000e+00 0.0000e+00
        5  1    5    5  501    0 +5.6415702098e+01 +2.6299093429e+01 -1.7743207451e+02 1.8809201159e+02 4.7000000000e+00 0.0000e+00 -1.0000e+00
      -13  1    6    6    0    0 +5.1788889876e+01 +4.1757092668e+01 -4.9300074679e+01 8.2802423069e+01 0.0000000000e+00 0.0000e+00 1.0000e+00
       14  1    6    6    0    0 +1.9571322534e+01 -1.2881236371e+01 +2.1142861467e+01 3.1559206377e+01 0.0000000000e+00 0.0000e+00 -1.0000e+00
       -5  1    3    3    0  504 -9.7433797570e+01 -6.1764395129e+01 +7.3304938471e+01 1.3676216370e+02 4.7000000000e+00 0.0000e+00 1.0000e+00
       13  1    4    4    0    0 -4.0234014379e+01 -5.4516622706e+01 +1.8349083868e+02 1.9560093544e+02 0.0000000000e+00 0.0000e+00 -1.0000e+00
      -14  1    4    4    0    0 -3.5185776614e+01 +3.1576182779e+01 +6.9158414294e+01 8.3773387555e+01 0.0000000000e+00 0.0000e+00 1.0000e+00
       21  1    1    2  504  503 +4.5077674054e+01 +2.9529885330e+01 -3.5061737689e+02 3.5473448635e+02 0.0000000000e+00 0.0000e+00 -1.0000e+00
<mgrwt>
<rscale>  3 0.25274213E+03</rscale>
<asrwt>0</asrwt>
<pdfrwt beam="1">  1       21 0.64851703E-01 0.25275690E+03</pdfrwt>
<pdfrwt beam="2">  1       21 0.10027516E+00 0.25275690E+03</pdfrwt>
<totfact> 0.16995896E+03</totfact>
</mgrwt>
</event>
</LesHouchesEvents>
